# Forces      
# CofR        : (0.000000e+00 0.000000e+00 -1.000000e+00)
# Time        forces(pressure viscous)	moments(pressure viscous)
0             	((-1.421085e-14 1.504542e-17 0.000000e+00) (4.625160e+00 -1.749791e-20 4.039883e-01)) ((-1.421085e-14 -5.684342e-14 3.552714e-15) (-2.019941e-02 4.425900e+00 2.312580e-01))
1.19976e-05   	((1.002953e+05 -2.439585e-14 2.978911e+05) (4.659730e+00 -9.664531e-21 3.776147e-01)) ((-1.489455e+04 2.316185e+04 5.014765e+03) (-1.888074e-02 4.468001e+00 2.329865e-01))
2.63878e-05   	((1.562503e+04 -3.911630e-15 4.873437e+04) (4.666465e+00 -1.020720e-20 3.748061e-01)) ((-2.436719e+03 2.699237e+03 7.812513e+02) (-1.874031e-02 4.471808e+00 2.333232e-01))
4.36511e-05   	((8.968049e+03 -2.279773e-15 2.773440e+04) (4.678947e+00 -7.938761e-21 3.760496e-01)) ((-1.386720e+03 1.785473e+03 4.484025e+02) (-1.880248e-02 4.481044e+00 2.339474e-01))
6.43527e-05   	((6.073050e+03 -1.516850e-15 1.857787e+04) (4.696140e+00 -6.708452e-21 3.764203e-01)) ((-9.288934e+02 1.169201e+03 3.036525e+02) (-1.882102e-02 4.496522e+00 2.348070e-01))
8.91792e-05   	((4.500753e+03 -1.086898e-15 1.306836e+04) (4.716089e+00 -6.133558e-21 3.765758e-01)) ((-6.534179e+02 9.714831e+02 2.250377e+02) (-1.882879e-02 4.515252e+00 2.358044e-01))
0.000118941   	((3.258760e+03 -7.829498e-16 9.544674e+03) (4.738585e+00 -6.028097e-21 3.767219e-01)) ((-4.772337e+02 6.748941e+02 1.629380e+02) (-1.883609e-02 4.536993e+00 2.369292e-01))
0.000154634   	((2.771724e+03 -5.977628e-16 6.300491e+03) (4.765197e+00 -5.192907e-21 3.781798e-01)) ((-3.150245e+02 9.211928e+02 1.385862e+02) (-1.890899e-02 4.562592e+00 2.382598e-01))
0.000197405   	((2.009354e+03 -4.174747e-16 7.746148e+03) (4.796431e+00 -5.522968e-21 3.792879e-01)) ((-3.873074e+02 -6.634367e+02 1.004677e+02) (-1.896440e-02 4.592803e+00 2.398215e-01))
0.000248707   	((1.678174e+03 -3.606635e-16 5.166866e+03) (4.833387e+00 -5.809588e-21 3.808001e-01)) ((-2.583433e+02 2.449048e+01 8.390870e+01) (-1.904001e-02 4.628532e+00 2.416694e-01))
0.000310237   	((1.440816e+03 -3.040731e-16 3.451847e+03) (4.877581e+00 -5.779664e-21 3.821450e-01)) ((-1.725924e+02 3.981062e+02 7.204082e+01) (-1.910725e-02 4.671557e+00 2.438791e-01))
0.000383982   	((1.195537e+03 -2.341773e-16 3.947733e+03) (4.931298e+00 -5.563303e-21 3.833984e-01)) ((-1.973867e+02 -2.507664e+02 5.977687e+01) (-1.916992e-02 4.724082e+00 2.465649e-01))
0.000472342   	((1.145806e+03 -2.005966e-16 2.627855e+03) (4.997150e+00 -5.299385e-21 3.867331e-01)) ((-1.313928e+02 8.412975e+01 5.729028e+01) (-1.933666e-02 4.787899e+00 2.498575e-01))
0.000577897   	((1.055160e+03 -1.965498e-16 1.989921e+03) (5.078529e+00 -5.344324e-21 3.893368e-01)) ((-9.949605e+01 3.633918e+02 5.275799e+01) (-1.946684e-02 4.867085e+00 2.539264e-01))
0.000704014   	((1.043502e+03 -1.737697e-16 2.900874e+03) (5.182700e+00 -3.028032e-21 3.901801e-01)) ((-1.450437e+02 -2.357991e+02 5.217511e+01) (-1.950900e-02 4.969297e+00 2.591350e-01))
0.000854764   	((2.681874e+03 -4.374456e-16 7.767160e+02) (5.341276e+00 -2.631015e-21 3.831144e-01)) ((-3.883580e+01 1.721316e+03 1.340937e+02) (-1.915572e-02 5.125805e+00 2.670638e-01))
0.00103538    	((5.106468e+02 -1.029664e-16 2.278961e+03) (5.506357e+00 -1.407256e-22 3.869378e-01)) ((-1.139481e+02 -4.232030e+02 2.553234e+01) (-1.934689e-02 5.287352e+00 2.753178e-01))
0.00125089    	((5.222897e+02 -2.191056e-16 1.380704e+03) (5.718300e+00 9.163290e-22 3.959408e-01)) ((-6.903519e+01 -1.894109e+02 2.611449e+01) (-1.979704e-02 5.494164e+00 2.859150e-01))
0.00150772    	((4.575513e+02 -1.043811e-16 5.852613e+02) (5.980634e+00 3.726412e-21 4.111852e-01)) ((-2.926306e+01 1.806703e+02 2.287757e+01) (-2.055926e-02 5.749115e+00 2.990317e-01))
0.00181593    	((3.049785e+02 -1.033664e-16 1.410330e+03) (6.295647e+00 1.440829e-21 4.252722e-01)) ((-7.051651e+01 -2.876184e+02 1.524893e+01) (-2.126361e-02 6.058169e+00 3.147823e-01))
0.00217961    	((3.140096e+02 -8.999650e-17 8.988505e+02) (6.652325e+00 2.947984e-21 4.479327e-01)) ((-4.494252e+01 -1.447866e+02 1.570048e+01) (-2.239664e-02 6.406118e+00 3.326162e-01))
0.00261425    	((2.262983e+02 -1.263298e-16 9.933380e+02) (7.052005e+00 3.966670e-21 4.673023e-01)) ((-4.966690e+01 -1.757760e+02 1.131491e+01) (-2.336511e-02 6.798264e+00 3.526002e-01))
0.0031256     	((2.323784e+02 -8.363790e-17 5.440494e+02) (7.488051e+00 9.771337e-21 4.927251e-01)) ((-2.720247e+01 -9.451898e+00 1.161892e+01) (-2.463626e-02 7.224585e+00 3.744026e-01))
0.00372826    	((1.687409e+02 -8.201578e-17 8.406559e+02) (7.957322e+00 7.839933e-21 5.152556e-01)) ((-4.203280e+01 -1.872793e+02 8.437046e+00) (-2.576278e-02 7.685654e+00 3.978661e-01))
0.00443572    	((1.598169e+02 -6.007844e-17 6.488236e+02) (8.454419e+00 4.059405e-21 5.384139e-01)) ((-3.244118e+01 -1.388538e+02 7.990846e+00) (-2.692069e-02 8.174651e+00 4.227210e-01))
0.0052549     	((1.248837e+02 -5.618091e-17 7.458728e+02) (8.961460e+00 6.690656e-21 5.622602e-01)) ((-3.729364e+01 -1.918317e+02 6.244185e+00) (-2.811301e-02 8.672905e+00 4.480730e-01))
0.0062379     	((1.264556e+02 -1.059166e-16 9.827248e+02) (9.504181e+00 7.824996e-21 6.004617e-01)) ((-4.913624e+01 -3.460918e+02 6.322780e+00) (-3.002308e-02 9.192488e+00 4.752090e-01))
0.00729653    	((9.699264e+01 -6.104240e-17 5.646457e+02) (9.990500e+00 1.583608e-20 6.270913e-01)) ((-2.823228e+01 -1.320199e+02 4.849632e+00) (-3.135456e-02 9.666524e+00 4.995250e-01))
0.00845139    	((8.757664e+01 -6.302138e-17 5.847252e+02) (1.042954e+01 1.069695e-20 6.432094e-01)) ((-2.923626e+01 -1.707495e+02 4.378832e+00) (-3.216047e-02 1.010023e+01 5.214769e-01))
0.00973457    	((7.618670e+01 -5.845834e-17 5.150325e+02) (1.082136e+01 1.246863e-20 6.496613e-01)) ((-2.575163e+01 -1.766639e+02 3.809335e+00) (-3.248307e-02 1.049407e+01 5.410679e-01))
0.0110177     	((4.718883e+01 -4.918137e-17 1.051867e+03) (1.110080e+01 -7.970130e-21 6.202134e-01)) ((-5.259337e+01 -5.402854e+02 2.359442e+00) (-3.101067e-02 1.081032e+01 5.550398e-01))
0.0120158     	((4.798599e+01 -8.124980e-17 1.036763e+03) (1.128836e+01 -9.315943e-21 6.161598e-01)) ((-5.183814e+01 -5.034223e+02 2.399300e+00) (-3.080799e-02 1.101008e+01 5.644182e-01))
0.0129029     	((6.337413e+01 -4.662187e-17 6.164794e+02) (1.143587e+01 -8.735277e-21 6.062326e-01)) ((-3.082397e+01 -2.303239e+02 3.168707e+00) (-3.031163e-02 1.116996e+01 5.717937e-01))
0.0136915     	((6.180756e+01 -4.531196e-17 6.014797e+02) (1.155207e+01 -9.399108e-21 5.979309e-01)) ((-3.007399e+01 -2.282079e+02 3.090378e+00) (-2.989654e-02 1.129670e+01 5.776036e-01))
0.01448       	((6.147864e+01 -4.582884e-17 5.582007e+02) (1.165165e+01 -1.022211e-20 5.976783e-01)) ((-2.791003e+01 -2.100900e+02 3.073932e+00) (-2.988391e-02 1.140273e+01 5.825823e-01))
0.0152686     	((6.455664e+01 -4.709151e-17 6.232047e+02) (1.173778e+01 -8.650960e-21 5.923989e-01)) ((-3.116023e+01 -2.308101e+02 3.227832e+00) (-2.961995e-02 1.149771e+01 5.868888e-01))
0.0160572     	((5.643690e+01 -4.543994e-17 6.241433e+02) (1.178530e+01 -9.458715e-21 5.828916e-01)) ((-3.120716e+01 -2.351510e+02 2.821845e+00) (-2.914458e-02 1.155522e+01 5.892651e-01))
0.0168457     	((5.764100e+01 -4.524093e-17 5.937071e+02) (1.183565e+01 -9.499877e-21 5.717383e-01)) ((-2.968536e+01 -2.209330e+02 2.882050e+00) (-2.858691e-02 1.161411e+01 5.917823e-01))
0.0176343     	((5.640029e+01 -4.461376e-17 5.712348e+02) (1.190038e+01 -8.326398e-21 5.636378e-01)) ((-2.856174e+01 -2.136303e+02 2.820014e+00) (-2.818189e-02 1.168693e+01 5.950192e-01))
0.0184229     	((5.759095e+01 -4.521019e-17 6.050056e+02) (1.195524e+01 -7.640749e-21 5.552153e-01)) ((-3.025028e+01 -2.264117e+02 2.879548e+00) (-2.776076e-02 1.175089e+01 5.977621e-01))
0.0192114     	((5.668270e+01 -4.478024e-17 6.054118e+02) (1.200211e+01 -7.197467e-21 5.451930e-01)) ((-3.027059e+01 -2.288011e+02 2.834135e+00) (-2.725965e-02 1.180813e+01 6.001054e-01))
0.02          	((5.505619e+01 -4.555445e-17 5.926684e+02) (1.203983e+01 -7.253811e-21 5.363842e-01)) ((-2.963342e+01 -2.277083e+02 2.752810e+00) (-2.681921e-02 1.185524e+01 6.019915e-01))
0.0208696     	((4.077559e+01 -4.753271e-17 7.803777e+02) (1.206164e+01 -5.574777e-21 5.382447e-01)) ((-3.901888e+01 -3.741034e+02 2.038779e+00) (-2.691223e-02 1.187808e+01 6.030822e-01))
0.0217805     	((4.544784e+01 -4.841659e-17 7.434411e+02) (1.207822e+01 -5.363333e-21 5.296038e-01)) ((-3.717205e+01 -3.345635e+02 2.272392e+00) (-2.648019e-02 1.190431e+01 6.039111e-01))
0.0226915     	((5.069481e+01 -4.596084e-17 6.994532e+02) (1.209088e+01 -5.315676e-21 5.186281e-01)) ((-3.497266e+01 -3.025619e+02 2.534741e+00) (-2.593140e-02 1.192739e+01 6.045439e-01))
0.0235569     	((4.891456e+01 -4.514371e-17 5.965179e+02) (1.209572e+01 -5.809124e-21 5.146944e-01)) ((-2.982589e+01 -2.465886e+02 2.445728e+00) (-2.573472e-02 1.193664e+01 6.047861e-01))
0.0244224     	((5.239162e+01 -4.509533e-17 6.662178e+02) (1.211596e+01 -6.168806e-21 5.035465e-01)) ((-3.331089e+01 -2.819662e+02 2.619581e+00) (-2.517732e-02 1.196714e+01 6.057982e-01))
0.0252878     	((4.883472e+01 -4.498064e-17 6.622582e+02) (1.211457e+01 -6.196566e-21 4.938279e-01)) ((-3.311291e+01 -2.797576e+02 2.441736e+00) (-2.469139e-02 1.197388e+01 6.057283e-01))
0.0261532     	((5.566382e+01 -4.461303e-17 6.251796e+02) (1.210722e+01 -6.509968e-21 4.844027e-01)) ((-3.125898e+01 -2.502149e+02 2.783191e+00) (-2.422013e-02 1.197249e+01 6.053612e-01))
0.0270186     	((4.066000e+01 -4.638236e-17 6.854555e+02) (1.212386e+01 -8.215434e-21 4.751359e-01)) ((-3.427278e+01 -3.188854e+02 2.033000e+00) (-2.375680e-02 1.199792e+01 6.061928e-01))
0.0278841     	((5.237074e+01 -4.567989e-17 6.559730e+02) (1.210825e+01 -7.923580e-21 4.667288e-01)) ((-3.279865e+01 -2.741208e+02 2.618537e+00) (-2.333644e-02 1.198793e+01 6.054125e-01))
0.0287495     	((4.835092e+01 -4.554889e-17 6.690636e+02) (1.207961e+01 -5.835662e-21 4.598177e-01)) ((-3.345318e+01 -2.875813e+02 2.417546e+00) (-2.299088e-02 1.196306e+01 6.039807e-01))
0.0296149     	((4.995372e+01 -4.688529e-17 6.683339e+02) (1.205878e+01 -2.492168e-21 4.460026e-01)) ((-3.341670e+01 -2.841768e+02 2.497686e+00) (-2.230013e-02 1.195036e+01 6.029388e-01))
0.0304803     	((4.462777e+01 -4.651033e-17 6.413342e+02) (1.203718e+01 -5.048732e-21 4.403247e-01)) ((-3.206671e+01 -2.857588e+02 2.231388e+00) (-2.201623e-02 1.193251e+01 6.018589e-01))
0.0313458     	((4.745257e+01 -4.730676e-17 6.761187e+02) (1.199688e+01 -2.762736e-21 4.323749e-01)) ((-3.380594e+01 -2.932415e+02 2.372629e+00) (-2.161875e-02 1.189537e+01 5.998440e-01))
0.0322112     	((4.722759e+01 -4.625656e-17 7.030507e+02) (1.196926e+01 -4.372826e-21 4.208275e-01)) ((-3.515253e+01 -3.134371e+02 2.361380e+00) (-2.104137e-02 1.187420e+01 5.984630e-01))
0.0329901     	((4.207793e+01 -5.746697e-17 6.475343e+02) (1.192896e+01 -6.931673e-21 4.111064e-01)) ((-3.237671e+01 -2.879304e+02 2.103897e+00) (-2.055532e-02 1.183780e+01 5.964479e-01))
0.0337689     	((4.593213e+01 -5.259856e-17 6.681231e+02) (1.189041e+01 -7.309147e-21 4.049233e-01)) ((-3.340615e+01 -2.961752e+02 2.296606e+00) (-2.024617e-02 1.180127e+01 5.945204e-01))
0.0345478     	((4.405306e+01 -4.874913e-17 7.060330e+02) (1.184825e+01 -6.154601e-21 3.965466e-01)) ((-3.530165e+01 -3.177348e+02 2.202653e+00) (-1.982733e-02 1.176208e+01 5.924123e-01))
0.0353267     	((4.636049e+01 -4.851291e-17 7.086172e+02) (1.180431e+01 -4.961058e-21 3.870074e-01)) ((-3.543086e+01 -3.178751e+02 2.318024e+00) (-1.935037e-02 1.172163e+01 5.902154e-01))
0.0361056     	((3.750488e+01 -5.774733e-17 6.279651e+02) (1.175740e+01 -4.459815e-21 3.794961e-01)) ((-3.139826e+01 -2.864775e+02 1.875244e+00) (-1.897481e-02 1.167709e+01 5.878700e-01))
0.0368845     	((4.440798e+01 -4.957459e-17 7.172664e+02) (1.170551e+01 -3.437378e-21 3.689470e-01)) ((-3.586332e+01 -3.252797e+02 2.220399e+00) (-1.844735e-02 1.162986e+01 5.852756e-01))
0.0376634     	((4.236215e+01 -4.951655e-17 7.211495e+02) (1.164653e+01 -5.101420e-21 3.570805e-01)) ((-3.605748e+01 -3.310077e+02 2.118108e+00) (-1.785403e-02 1.157663e+01 5.823264e-01))
0.0384422     	((4.332004e+01 -4.925881e-17 7.264913e+02) (1.156293e+01 -5.898006e-21 3.374261e-01)) ((-3.632456e+01 -3.319557e+02 2.166002e+00) (-1.687130e-02 1.150501e+01 5.781466e-01))
0.0392211     	((3.668061e+01 -5.527082e-17 6.385831e+02) (1.141566e+01 -4.744118e-22 3.272699e-01)) ((-3.192915e+01 -2.934228e+02 1.834030e+00) (-1.636350e-02 1.136401e+01 5.707832e-01))
0.04          	((4.194868e+01 -4.918260e-17 7.362146e+02) (1.129192e+01 -1.069585e-20 3.033989e-01)) ((-3.681073e+01 -3.380101e+02 2.097434e+00) (-1.516994e-02 1.125793e+01 5.645960e-01))
0.0408333     	((4.226754e+01 -4.885287e-17 7.351501e+02) (1.122603e+01 -1.427841e-20 2.800796e-01)) ((-3.675750e+01 -3.387119e+02 2.113377e+00) (-1.400398e-02 1.120929e+01 5.613013e-01))
0.0416667     	((3.874752e+01 -5.095049e-17 7.243484e+02) (1.117024e+01 -2.536926e-20 2.463459e-01)) ((-3.621742e+01 -3.363530e+02 1.937376e+00) (-1.231730e-02 1.117947e+01 5.585119e-01))
0.0424638     	((3.602097e+01 -5.365232e-17 6.668677e+02) (1.106834e+01 -1.666795e-20 2.245006e-01)) ((-3.334339e+01 -3.095620e+02 1.801048e+00) (-1.122503e-02 1.109617e+01 5.534170e-01))
0.0432609     	((3.551279e+01 -5.000230e-17 7.385661e+02) (1.100215e+01 1.687510e-20 2.384041e-01)) ((-3.692831e+01 -3.409602e+02 1.775639e+00) (-1.192020e-02 1.101196e+01 5.501076e-01))
0.044058      	((4.037391e+01 -4.964091e-17 7.252159e+02) (1.098119e+01 2.333417e-20 2.293550e-01)) ((-3.626079e+01 -3.312878e+02 2.018696e+00) (-1.146775e-02 1.099589e+01 5.490593e-01))
0.0448551     	((2.612694e+01 -5.656355e-17 6.528016e+02) (1.096519e+01 3.257192e-20 2.232913e-01)) ((-3.264008e+01 -3.053470e+02 1.306347e+00) (-1.116456e-02 1.098348e+01 5.482597e-01))
0.0456522     	((3.339235e+01 -5.229853e-17 7.850920e+02) (1.094345e+01 3.748130e-20 2.130229e-01)) ((-3.925460e+01 -3.735435e+02 1.669617e+00) (-1.065115e-02 1.096909e+01 5.471725e-01))
0.0464493     	((3.285663e+01 -5.168150e-17 7.501408e+02) (1.092452e+01 3.918441e-20 2.028084e-01)) ((-3.750704e+01 -3.526157e+02 1.642832e+00) (-1.014042e-02 1.095828e+01 5.462261e-01))
0.0472464     	((2.937517e+01 -4.174842e-17 6.700000e+02) (1.090682e+01 3.869408e-20 1.908789e-01)) ((-3.350000e+01 -3.082599e+02 1.468759e+00) (-9.543947e-03 1.095020e+01 5.453409e-01))
0.0480435     	((2.910543e+01 -4.133561e-17 6.818087e+02) (1.082720e+01 3.761009e-20 1.800561e-01)) ((-3.409044e+01 -3.153472e+02 1.455271e+00) (-9.002803e-03 1.087885e+01 5.413601e-01))
0.0488406     	((3.273257e+01 -4.874783e-17 7.427108e+02) (1.077366e+01 2.619574e-20 1.742706e-01)) ((-3.713554e+01 -3.445804e+02 1.636629e+00) (-8.713532e-03 1.082830e+01 5.386832e-01))
0.0496377     	((3.249228e+01 -4.734384e-17 7.331377e+02) (1.076635e+01 1.186902e-20 1.694206e-01)) ((-3.665688e+01 -3.389869e+02 1.624614e+00) (-8.471028e-03 1.082374e+01 5.383176e-01))
0.0504348     	((1.917380e+01 -4.140131e-17 6.051934e+02) (1.077259e+01 -5.895536e-23 1.665503e-01)) ((-3.025967e+01 -2.727823e+02 9.586900e-01) (-8.327516e-03 1.083182e+01 5.386293e-01))
0.0512319     	((3.255424e+01 -4.939131e-17 7.397884e+02) (1.078185e+01 -1.016486e-20 1.571588e-01)) ((-3.698942e+01 -3.425924e+02 1.627712e+00) (-7.857938e-03 1.084874e+01 5.390924e-01))
0.052029      	((2.925258e+01 -4.985716e-17 7.354234e+02) (1.079245e+01 -2.129230e-20 1.457769e-01)) ((-3.677117e+01 -3.420064e+02 1.462629e+00) (-7.288845e-03 1.086899e+01 5.396227e-01))
0.0528261     	((1.318068e+01 -4.418632e-17 5.563783e+02) (1.080638e+01 -2.326059e-20 1.375983e-01)) ((-2.781892e+01 -2.464114e+02 6.590339e-01) (-6.879913e-03 1.089045e+01 5.403190e-01))
0.0536232     	((2.740873e+01 -5.006764e-17 7.417885e+02) (1.081394e+01 -2.917917e-20 1.251666e-01)) ((-3.708942e+01 -3.459457e+02 1.370437e+00) (-6.258331e-03 1.090850e+01 5.406969e-01))
0.0544203     	((2.742735e+01 -4.949654e-17 7.237025e+02) (1.082409e+01 -3.434545e-20 1.148473e-01)) ((-3.618512e+01 -3.325513e+02 1.371367e+00) (-5.742363e-03 1.092746e+01 5.412043e-01))
0.0552174     	((5.810063e+00 -4.429333e-17 5.259372e+02) (1.084436e+01 -3.814000e-20 1.100313e-01)) ((-2.629686e+01 -2.244973e+02 2.905032e-01) (-5.501564e-03 1.095227e+01 5.422182e-01))
0.0560145     	((2.615766e+01 -4.597708e-17 7.186358e+02) (1.086872e+01 -3.693017e-20 1.051112e-01)) ((-3.593179e+01 -3.266447e+02 1.307883e+00) (-5.255561e-03 1.098105e+01 5.434360e-01))
0.0568116     	((2.223623e+01 -4.579577e-17 6.971286e+02) (1.088955e+01 -2.777737e-20 9.938509e-02)) ((-3.485643e+01 -3.180735e+02 1.111812e+00) (-4.969255e-03 1.100767e+01 5.444773e-01))
0.0576087     	((-2.004633e+00 4.764451e-17 4.649264e+02) (1.091677e+01 -2.740507e-20 9.624915e-02)) ((-2.324632e+01 -1.833097e+02 -1.002317e-01) (-4.812457e-03 1.103887e+01 5.458386e-01))
0.0584058     	((2.178243e+01 -2.860774e-17 6.831759e+02) (1.093238e+01 -2.247757e-20 9.125961e-02)) ((-3.415880e+01 -3.063399e+02 1.089122e+00) (-4.562980e-03 1.105971e+01 5.466190e-01))
0.0592029     	((-2.216405e+01 7.702095e-17 7.383835e+02) (1.090598e+01 -2.796279e-20 9.349643e-02)) ((-3.691918e+01 -3.563807e+02 -1.108203e+00) (-4.674821e-03 1.103205e+01 5.452992e-01))
0.06          	((-3.674832e+01 1.084686e-16 4.393936e+02) (1.090922e+01 -1.002659e-20 1.078016e-01)) ((-2.196968e+01 -1.742443e+02 -1.837416e+00) (-5.390081e-03 1.102396e+01 5.454610e-01))
0.0608        	((3.546280e-01 3.455558e-17 6.387852e+02) (1.093157e+01 -6.029097e-21 1.096319e-01)) ((-3.193926e+01 -2.826446e+02 1.773140e-02) (-5.481596e-03 1.104613e+01 5.465786e-01))
0.0616        	((-4.384833e+01 9.155054e-17 2.587546e+02) (1.096078e+01 -4.117963e-22 1.157976e-01)) ((-1.293773e+01 -5.514133e+01 -2.192417e+00) (-5.789879e-03 1.107196e+01 5.480391e-01))
0.0624        	((-6.612397e+00 2.422083e-17 5.660504e+02) (1.099058e+01 -2.116219e-20 1.120194e-01)) ((-2.830252e+01 -2.344190e+02 -3.306199e-01) (-5.600971e-03 1.110733e+01 5.495291e-01))
0.0632        	((-1.401876e+02 -1.039973e-16 3.744643e+02) (1.093465e+01 -5.878535e-20 1.199280e-01)) ((-1.872321e+01 -1.209543e+02 -7.009380e+00) (-5.996402e-03 1.104774e+01 5.467324e-01))
0.064         	((-1.279937e+02 1.858066e-16 -1.104542e+02) (1.089140e+01 -4.154187e-20 1.969886e-01)) ((5.522711e+00 1.833104e+02 -6.399684e+00) (-9.849428e-03 1.093927e+01 5.445701e-01))
0.0648        	((-1.394081e+03 1.381738e-15 -5.535375e+03) (1.070502e+01 -1.681859e-20 1.944933e-01)) ((2.767687e+02 3.476297e+03 -6.970403e+01) (-9.724663e-03 1.076046e+01 5.352510e-01))
0.0656        	((7.536483e+01 -4.687006e-17 5.444942e+02) (1.079005e+01 -9.987879e-21 1.992290e-01)) ((-2.722471e+01 -1.458441e+02 3.768241e+00) (-9.961449e-03 1.085798e+01 5.395023e-01))
0.06632       	((6.919698e+01 -4.442531e-17 6.238578e+02) (1.087566e+01 -8.848727e-22 2.062635e-01)) ((-3.119289e+01 -2.022411e+02 3.459849e+00) (-1.031317e-02 1.095315e+01 5.437828e-01))
0.06704       	((6.972607e+01 -4.490028e-17 6.072190e+02) (1.097595e+01 5.412253e-21 2.102520e-01)) ((-3.036095e+01 -1.922066e+02 3.486304e+00) (-1.051260e-02 1.106364e+01 5.487976e-01))
0.0678024     	((6.797140e+01 -4.414765e-17 6.086137e+02) (1.108607e+01 9.674745e-21 2.120814e-01)) ((-3.043068e+01 -1.986792e+02 3.398570e+00) (-1.060407e-02 1.118395e+01 5.543037e-01))
0.0685647     	((6.377590e+01 -4.562443e-17 6.278565e+02) (1.119276e+01 1.032187e-20 2.141411e-01)) ((-3.139283e+01 -2.286215e+02 3.188795e+00) (-1.070706e-02 1.129958e+01 5.596380e-01))
0.0693271     	((6.613422e+01 -4.200155e-17 5.727478e+02) (1.129251e+01 1.064383e-20 2.137507e-01)) ((-2.863739e+01 -1.954675e+02 3.306711e+00) (-1.068753e-02 1.140934e+01 5.646253e-01))
0.0700894     	((6.291166e+01 -4.654644e-17 5.824096e+02) (1.136307e+01 1.322909e-20 2.239440e-01)) ((-2.912048e+01 -2.231222e+02 3.145583e+00) (-1.119720e-02 1.148410e+01 5.681534e-01))
0.0708518     	((5.979112e+01 -5.145481e-17 6.142793e+02) (1.140382e+01 1.354025e-20 2.394400e-01)) ((-3.071397e+01 -2.541765e+02 2.989556e+00) (-1.197200e-02 1.152532e+01 5.701909e-01))
0.0716141     	((5.416321e+01 -4.988689e-17 5.812284e+02) (1.144010e+01 1.228188e-20 2.425698e-01)) ((-2.906142e+01 -2.454325e+02 2.708161e+00) (-1.212849e-02 1.156359e+01 5.720048e-01))
0.0723765     	((1.997582e+01 -8.355286e-17 1.009090e+03) (1.146952e+01 1.131551e-20 2.316469e-01)) ((-5.045452e+01 -5.592907e+02 9.987910e-01) (-1.158234e-02 1.159729e+01 5.734758e-01))
0.0731388     	((3.543605e+01 -6.348376e-17 7.990231e+02) (1.149204e+01 1.012766e-20 2.276436e-01)) ((-3.995116e+01 -3.981797e+02 1.771803e+00) (-1.138218e-02 1.162274e+01 5.746019e-01))
0.0739012     	((2.247324e+01 -7.685872e-17 9.241897e+02) (1.150398e+01 5.382864e-21 2.190627e-01)) ((-4.620949e+01 -4.959245e+02 1.123662e+00) (-1.095314e-02 1.163868e+01 5.751991e-01))
0.0746635     	((3.485339e+01 -8.584909e-17 5.457901e+02) (1.150878e+01 3.837859e-21 2.132168e-01)) ((-2.728950e+01 -2.966160e+02 1.742669e+00) (-1.066084e-02 1.164791e+01 5.754391e-01))
0.0754259     	((3.347498e+01 -7.084558e-17 6.382809e+02) (1.154009e+01 -1.762987e-21 1.866880e-01)) ((-3.191404e+01 -3.080280e+02 1.673749e+00) (-9.334400e-03 1.169249e+01 5.770047e-01))
0.0761882     	((2.709871e+01 -7.063044e-17 5.145018e+02) (1.157586e+01 1.752298e-21 1.618610e-01)) ((-2.572509e+01 -2.334195e+02 1.354935e+00) (-8.093052e-03 1.174618e+01 5.787930e-01))
0.0769506     	((4.416781e+00 -3.116247e-17 9.208839e+01) (1.159026e+01 2.591776e-21 1.541533e-01)) ((-4.604420e+00 -3.216735e+01 2.208390e-01) (-7.707666e-03 1.176623e+01 5.795128e-01))
0.0777129     	((-3.839053e+01 6.403552e-17 -2.977179e+02) (1.159530e+01 1.404903e-20 1.607626e-01)) ((1.488589e+01 1.877604e+02 -1.919527e+00) (-8.038132e-03 1.176611e+01 5.797652e-01))
0.0784753     	((-4.925943e+01 1.592162e-17 -4.774289e+01) (1.158118e+01 9.991541e-21 1.688014e-01)) ((2.387145e+00 4.733196e+01 -2.462972e+00) (-8.440071e-03 1.174591e+01 5.790588e-01))
0.0792376     	((-1.529773e+02 3.017981e-16 -5.279209e+02) (1.154061e+01 7.902834e-21 1.768530e-01)) ((2.639604e+01 3.232858e+02 -7.648863e+00) (-8.842650e-03 1.170053e+01 5.770307e-01))
0.08          	((-4.658253e+01 9.484969e-17 1.511295e+02) (1.154000e+01 -4.583768e-21 2.112839e-01)) ((-7.556473e+00 -5.508333e+00 -2.329126e+00) (-1.056419e-02 1.167371e+01 5.770001e-01))
0.0808        	((-1.064174e+02 -6.868685e-17 -6.814142e+01) (1.155312e+01 -3.728780e-21 2.416972e-01)) ((3.407071e+00 1.254076e+02 -5.320872e+00) (-1.208486e-02 1.166794e+01 5.776561e-01))
0.0816348     	((-5.376816e+02 6.051658e-16 -1.440584e+03) (1.148773e+01 9.203655e-21 2.495337e-01)) ((7.202922e+01 8.523913e+02 -2.688408e+01) (-1.247668e-02 1.160414e+01 5.743865e-01))
0.0825093     	((7.035226e+01 -4.070239e-17 5.595017e+02) (1.160322e+01 1.254680e-20 2.729619e-01)) ((-2.797509e+01 -1.794767e+02 3.517613e+00) (-1.364810e-02 1.172355e+01 5.801612e-01))
0.0832381     	((6.559762e+01 -4.111713e-17 5.177590e+02) (1.168667e+01 1.445640e-20 2.917316e-01)) ((-2.588795e+01 -1.738359e+02 3.279881e+00) (-1.458658e-02 1.181118e+01 5.843337e-01))
0.0839669     	((6.623595e+01 -4.044369e-17 4.303548e+02) (1.174215e+01 1.257557e-20 3.126770e-01)) ((-2.151774e+01 -1.646823e+02 3.311798e+00) (-1.563385e-02 1.186929e+01 5.871076e-01))
0.0846957     	((5.264700e+01 -4.704857e-17 5.293187e+02) (1.179139e+01 1.259072e-20 3.254724e-01)) ((-2.646593e+01 -2.053074e+02 2.632350e+00) (-1.627362e-02 1.192295e+01 5.895694e-01))
0.0854244     	((3.244219e+01 -3.119622e-17 6.234324e+02) (1.181007e+01 8.398736e-21 3.410267e-01)) ((-3.117162e+01 -3.502533e+02 1.622110e+00) (-1.705134e-02 1.194348e+01 5.905036e-01))
0.0861916     	((4.111781e+01 -3.515893e-17 5.899394e+02) (1.182495e+01 7.475609e-21 3.553721e-01)) ((-2.949697e+01 -2.429958e+02 2.055890e+00) (-1.776860e-02 1.195845e+01 5.912473e-01))
0.0869587     	((5.016057e+01 -3.431933e-17 4.196075e+02) (1.182605e+01 7.928940e-21 3.755381e-01)) ((-2.098038e+01 -1.688501e+02 2.508029e+00) (-1.877691e-02 1.195769e+01 5.913025e-01))
0.0877258     	((-6.712222e-01 4.671878e-17 2.417892e+02) (1.182278e+01 -4.900678e-21 3.429955e-01)) ((-1.208946e+01 -7.169738e+01 -3.356111e-02) (-1.714978e-02 1.199726e+01 5.911389e-01))
0.088493      	((-1.352377e+01 4.427644e-17 3.258070e+02) (1.184937e+01 1.013864e-20 2.908948e-01)) ((-1.629035e+01 -1.061309e+02 -6.761884e-01) (-1.454474e-02 1.207852e+01 5.924684e-01))
0.0892601     	((-2.535192e+01 9.252827e-18 5.551689e+02) (1.188742e+01 2.396874e-20 2.437941e-01)) ((-2.775845e+01 -2.616262e+02 -1.267596e+00) (-1.218971e-02 1.215677e+01 5.943710e-01))
0.0900272     	((-9.089390e+01 -7.319917e-18 4.033243e+01) (1.193669e+01 5.735571e-20 2.131222e-01)) ((-2.016621e+00 7.487408e+01 -4.544695e+00) (-1.065611e-02 1.223693e+01 5.968346e-01))
0.0907944     	((-2.969643e+02 3.736848e-16 -7.867283e+02) (1.187551e+01 4.751748e-20 3.054812e-01)) ((3.933642e+01 4.930404e+02 -1.484821e+01) (-1.527406e-02 1.208334e+01 5.937754e-01))
0.0915615     	((3.856859e+01 3.519049e-17 -8.769403e+01) (1.184192e+01 3.172528e-20 3.391162e-01)) ((4.384701e+00 7.927712e+01 1.928429e+00) (-1.695581e-02 1.202573e+01 5.920961e-01))
0.0924054     	((2.425690e+01 2.102987e-18 4.301571e+02) (1.177056e+01 3.015105e-20 3.687480e-01)) ((-2.150786e+01 -1.020777e+02 1.212845e+00) (-1.843740e-02 1.193856e+01 5.885278e-01))
0.0933547     	((-1.553445e+01 1.438237e-17 4.120334e+02) (1.159395e+01 2.127498e-20 3.649391e-01)) ((-2.060167e+01 -1.285051e+02 -7.767227e-01) (-1.824695e-02 1.174823e+01 5.796973e-01))
0.0940192     	((-1.639361e+01 1.456593e-17 4.079754e+02) (1.143739e+01 1.754353e-20 3.439921e-01)) ((-2.039877e+01 -1.272180e+02 -8.196806e-01) (-1.719960e-02 1.158411e+01 5.718695e-01))
0.0946173     	((-1.393521e+01 1.428040e-17 3.780147e+02) (1.131718e+01 1.672824e-20 3.119713e-01)) ((-1.890073e+01 -1.110384e+02 -6.967603e-01) (-1.559857e-02 1.145972e+01 5.658592e-01))
0.0952154     	((-1.307816e+01 1.420743e-17 3.824119e+02) (1.120881e+01 1.548580e-20 2.821602e-01)) ((-1.912060e+01 -1.120212e+02 -6.539081e-01) (-1.410801e-02 1.134773e+01 5.604405e-01))
0.0958135     	((-1.271667e+01 1.396434e-17 3.855169e+02) (1.111244e+01 1.088230e-20 2.559745e-01)) ((-1.927585e+01 -1.109107e+02 -6.358334e-01) (-1.279872e-02 1.124831e+01 5.556222e-01))
0.0964115     	((-1.145238e+01 1.403991e-17 3.809162e+02) (1.102605e+01 1.201399e-20 2.317048e-01)) ((-1.904581e+01 -1.085982e+02 -5.726188e-01) (-1.158524e-02 1.115941e+01 5.513025e-01))
0.0970096     	((-1.151167e+01 1.565384e-17 2.977223e+02) (1.095222e+01 2.052212e-20 2.122868e-01)) ((-1.488612e+01 -7.914245e+01 -5.755833e-01) (-1.061434e-02 1.108318e+01 5.476111e-01))
0.0976077     	((-1.172902e+01 1.442601e-17 3.675025e+02) (1.089529e+01 2.644940e-20 1.959595e-01)) ((-1.837512e+01 -1.039578e+02 -5.864511e-01) (-9.797977e-03 1.102474e+01 5.447645e-01))
0.0982058     	((-1.175835e+01 1.455920e-17 3.653763e+02) (1.085700e+01 3.152711e-20 1.835025e-01)) ((-1.826881e+01 -1.028984e+02 -5.879176e-01) (-9.175123e-03 1.098558e+01 5.428498e-01))
0.0988038     	((-1.148013e+01 1.541319e-17 3.583361e+02) (1.084003e+01 3.344670e-20 1.750572e-01)) ((-1.791681e+01 -1.000708e+02 -5.740066e-01) (-8.752858e-03 1.096842e+01 5.420016e-01))
0.0994019     	((-1.114428e+01 1.920069e-17 3.313113e+02) (1.083409e+01 3.251173e-20 1.715259e-01)) ((-1.656557e+01 -9.014792e+01 -5.572138e-01) (-8.576293e-03 1.096243e+01 5.417043e-01))
0.1           	((-1.083748e+01 2.146369e-17 3.239661e+02) (1.083691e+01 2.787208e-20 1.700014e-01)) ((-1.619830e+01 -8.716929e+01 -5.418741e-01) (-8.500068e-03 1.096549e+01 5.418454e-01))
0.100667      	((-1.091739e+01 1.994511e-17 3.409138e+02) (1.086141e+01 2.208531e-20 1.708663e-01)) ((-1.704569e+01 -9.280465e+01 -5.458693e-01) (-8.543314e-03 1.099110e+01 5.430705e-01))
0.10141       	((-1.095322e+01 1.994066e-17 3.416365e+02) (1.090555e+01 1.681322e-20 1.762726e-01)) ((-1.708183e+01 -9.283712e+01 -5.476609e-01) (-8.813631e-03 1.103706e+01 5.452776e-01))
0.102154      	((-1.088651e+01 2.082326e-17 3.368893e+02) (1.095894e+01 1.266660e-20 1.844088e-01)) ((-1.684446e+01 -9.098272e+01 -5.443257e-01) (-9.220440e-03 1.109251e+01 5.479471e-01))
0.102868      	((-1.077028e+01 2.182715e-17 3.318212e+02) (1.100969e+01 1.019136e-20 1.938713e-01)) ((-1.659106e+01 -8.899728e+01 -5.385142e-01) (-9.693566e-03 1.114505e+01 5.504844e-01))
0.103613      	((-1.067342e+01 2.271314e-17 3.276103e+02) (1.105251e+01 7.937299e-21 2.048033e-01)) ((-1.638051e+01 -8.737301e+01 -5.336710e-01) (-1.024016e-02 1.118927e+01 5.526255e-01))
0.104357      	((-1.065531e+01 2.326633e-17 3.259597e+02) (1.108272e+01 5.732157e-21 2.136112e-01)) ((-1.629798e+01 -8.674953e+01 -5.327654e-01) (-1.068056e-02 1.122054e+01 5.541361e-01))
0.105102      	((-1.060776e+01 2.356792e-17 3.254848e+02) (1.110556e+01 3.594391e-21 2.185891e-01)) ((-1.627424e+01 -8.649106e+01 -5.303879e-01) (-1.092945e-02 1.124442e+01 5.552782e-01))
0.105847      	((-1.062117e+01 2.376691e-17 3.249115e+02) (1.112948e+01 4.440276e-21 2.226788e-01)) ((-1.624558e+01 -8.626543e+01 -5.310586e-01) (-1.113394e-02 1.126950e+01 5.564740e-01))
0.106592      	((-1.059235e+01 2.399148e-17 3.236981e+02) (1.114933e+01 5.011926e-21 2.275697e-01)) ((-1.618490e+01 -8.583084e+01 -5.296174e-01) (-1.137848e-02 1.129030e+01 5.574663e-01))
0.107337      	((-1.056506e+01 2.424942e-17 3.215937e+02) (1.116187e+01 5.679589e-21 2.318155e-01)) ((-1.607968e+01 -8.514673e+01 -5.282532e-01) (-1.159078e-02 1.130353e+01 5.580933e-01))
0.108082      	((-1.033161e+01 2.473952e-17 3.146273e+02) (1.116651e+01 6.308262e-21 2.349219e-01)) ((-1.573137e+01 -8.264534e+01 -5.165803e-01) (-1.174610e-02 1.130856e+01 5.583256e-01))
0.108827      	((-9.794659e+00 2.587316e-17 2.932255e+02) (1.116524e+01 6.729037e-21 2.389381e-01)) ((-1.466127e+01 -7.493846e+01 -4.897329e-01) (-1.194691e-02 1.130719e+01 5.582621e-01))
0.109572      	((-9.401299e+00 2.550189e-17 2.869127e+02) (1.116145e+01 7.158387e-21 2.445780e-01)) ((-1.434563e+01 -7.276074e+01 -4.700650e-01) (-1.222890e-02 1.130299e+01 5.580723e-01))
0.110317      	((-9.733512e+00 2.338590e-17 3.066923e+02) (1.116239e+01 7.160124e-21 2.492673e-01)) ((-1.533461e+01 -7.992567e+01 -4.866756e-01) (-1.246336e-02 1.130387e+01 5.581193e-01))