# Forces      
# CofR        : (0.000000e+00 0.000000e+00 -1.000000e+00)
# Time        forces(pressure viscous)	moments(pressure viscous)
0             	((-1.421085e-14 1.504542e-17 0.000000e+00) (4.576943e+00 -2.613700e-20 9.669028e-01)) ((-1.421085e-14 -5.684342e-14 3.552714e-15) (-4.834514e-02 4.100035e+00 2.288471e-01))
1.19976e-05   	((7.884818e+04 -6.648597e-14 1.030024e+06) (4.603553e+00 -2.202953e-20 8.526491e-01)) ((-5.150121e+04 -3.332533e+05 3.942409e+03) (-4.263245e-02 4.177032e+00 2.301776e-01))
2.63878e-05   	((1.002605e+04 -1.187785e-14 1.659128e+05) (4.601531e+00 -2.192804e-20 8.136499e-01)) ((-8.295642e+03 -6.351599e+04 5.013024e+02) (-4.068250e-02 4.189651e+00 2.300765e-01))
4.36511e-05   	((4.990467e+03 -6.318091e-15 9.637251e+04) (4.600859e+00 -1.939616e-20 7.954061e-01)) ((-4.818626e+03 -3.851390e+04 2.495234e+02) (-3.977031e-02 4.196273e+00 2.300429e-01))
6.43527e-05   	((3.439017e+03 -4.304181e-15 6.315054e+04) (4.609655e+00 -1.900281e-20 7.852340e-01)) ((-3.157527e+03 -2.420662e+04 1.719509e+02) (-3.926170e-02 4.209552e+00 2.304827e-01))
8.91792e-05   	((2.918790e+03 -3.083711e-15 4.384052e+04) (4.622185e+00 -1.854295e-20 7.781773e-01)) ((-2.192026e+03 -1.606183e+04 1.459395e+02) (-3.890886e-02 4.225346e+00 2.311093e-01))
0.000118941   	((1.874762e+03 -2.178358e-15 3.275379e+04) (4.635110e+00 -1.812412e-20 7.734973e-01)) ((-1.637690e+03 -1.233911e+04 9.373811e+01) (-3.867486e-02 4.240806e+00 2.317555e-01))
0.000154634   	((2.153795e+03 -1.833031e-15 2.536645e+04) (4.653337e+00 -1.782611e-20 7.696841e-01)) ((-1.268323e+03 -8.718134e+03 1.076897e+02) (-3.848421e-02 4.261185e+00 2.326668e-01))
0.000197405   	((1.113089e+03 -1.198791e-15 1.818576e+04) (4.670576e+00 -1.765192e-20 7.667490e-01)) ((-9.092879e+02 -6.801433e+03 5.565444e+01) (-3.833745e-02 4.280334e+00 2.335288e-01))
0.000248707   	((1.559127e+03 -1.166127e-15 1.530639e+04) (4.694378e+00 -1.770161e-20 7.651881e-01)) ((-7.653195e+02 -5.202879e+03 7.795637e+01) (-3.825941e-02 4.305767e+00 2.347189e-01))
0.000310237   	((9.708951e+02 -8.219761e-16 1.176738e+04) (4.720413e+00 -1.742856e-20 7.633386e-01)) ((-5.883692e+02 -4.081607e+03 4.854475e+01) (-3.816693e-02 4.333430e+00 2.360206e-01))
0.000383982   	((1.057454e+03 -7.647766e-16 1.018141e+04) (4.754556e+00 -1.719183e-20 7.612619e-01)) ((-5.090706e+02 -3.373931e+03 5.287271e+01) (-3.806310e-02 4.369164e+00 2.377278e-01))
0.000472342   	((7.913105e+02 -5.977021e-16 8.200879e+03) (4.794694e+00 -1.695708e-20 7.593732e-01)) ((-4.100439e+02 -2.803776e+03 3.956553e+01) (-3.796866e-02 4.410860e+00 2.397347e-01))
0.000577897   	((9.067633e+02 -4.981187e-16 7.471555e+03) (4.846375e+00 -1.503735e-20 7.596767e-01)) ((-3.735778e+02 -2.544462e+03 4.533816e+01) (-3.798384e-02 4.463773e+00 2.423187e-01))
0.000704014   	((8.643041e+02 -5.129183e-16 6.509461e+03) (4.914627e+00 -1.469357e-20 7.585228e-01)) ((-3.254730e+02 -2.033146e+03 4.321520e+01) (-3.792614e-02 4.533307e+00 2.457314e-01))
0.000854764   	((7.346776e+02 -4.273270e-16 5.377734e+03) (5.002320e+00 -1.441424e-20 7.576237e-01)) ((-2.688867e+02 -1.649173e+03 3.673388e+01) (-3.788119e-02 4.622077e+00 2.501160e-01))
0.00103538    	((7.332721e+02 -3.550134e-16 4.444789e+03) (5.118698e+00 -1.545047e-20 7.591118e-01)) ((-2.222395e+02 -1.350583e+03 3.666361e+01) (-3.795559e-02 4.738928e+00 2.559349e-01))
0.00125089    	((1.860137e+03 -7.070283e-16 6.480282e+03) (5.313223e+00 -1.785147e-20 7.476609e-01)) ((-3.240141e+02 -1.324523e+03 9.300683e+01) (-3.738305e-02 4.935155e+00 2.656611e-01))
0.00150772    	((9.033290e+02 -3.648899e-16 3.982966e+03) (5.535087e+00 -1.961692e-20 7.481081e-01)) ((-1.991483e+02 -1.125816e+03 4.516645e+01) (-3.740541e-02 5.157204e+00 2.767544e-01))
0.00181593    	((3.588089e+02 -2.075070e-16 2.768767e+03) (5.780542e+00 -1.647631e-20 7.669277e-01)) ((-1.384384e+02 -1.019301e+03 1.794045e+01) (-3.834638e-02 5.400443e+00 2.890271e-01))
0.00217961    	((2.640881e+02 -1.840179e-16 2.506301e+03) (6.072432e+00 -1.784258e-20 7.883325e-01)) ((-1.253151e+02 -9.567004e+02 1.320441e+01) (-3.941663e-02 5.691254e+00 3.036216e-01))
0.00261425    	((1.482263e+02 -1.982860e-16 2.858130e+03) (6.404605e+00 -1.776705e-20 8.170886e-01)) ((-1.429065e+02 -1.254143e+03 7.411315e+00) (-4.085443e-02 6.022183e+00 3.202302e-01))
0.0031256     	((7.997870e+01 -2.972887e-16 4.212252e+03) (6.744874e+00 -1.369765e-20 8.546913e-01)) ((-2.106126e+02 -2.293514e+03 3.998935e+00) (-4.273456e-02 6.359675e+00 3.372437e-01))
0.00372826    	((1.188092e+02 -9.224064e-17 1.544862e+03) (7.122851e+00 -1.104728e-20 8.946683e-01)) ((-7.724308e+01 -5.350727e+02 5.940460e+00) (-4.473341e-02 6.734870e+00 3.561425e-01))
0.00435409    	((1.118285e+02 -8.846245e-17 1.410999e+03) (7.478867e+00 -7.667005e-21 9.283303e-01)) ((-7.054997e+01 -4.547175e+02 5.591426e+00) (-4.641652e-02 7.088587e+00 3.739434e-01))
0.00497993    	((1.431137e+02 -9.805476e-17 1.059348e+03) (7.800175e+00 -4.296547e-21 9.448511e-01)) ((-5.296738e+01 -3.483997e+02 7.155687e+00) (-4.724255e-02 7.410355e+00 3.900087e-01))
0.00560577    	((1.016635e+02 -8.325275e-17 1.269284e+03) (8.082661e+00 -3.109352e-21 9.718001e-01)) ((-6.346420e+01 -4.034158e+02 5.083177e+00) (-4.859000e-02 7.689943e+00 4.041330e-01))
0.0062316     	((9.692117e+01 -8.129075e-17 1.205781e+03) (8.331987e+00 -3.192532e-21 9.786542e-01)) ((-6.028904e+01 -3.913118e+02 4.846059e+00) (-4.893271e-02 7.939957e+00 4.165994e-01))
0.00683023    	((8.141764e+01 -9.658490e-17 1.388158e+03) (8.544496e+00 -4.034500e-21 9.756835e-01)) ((-6.940792e+01 -5.212968e+02 4.070882e+00) (-4.878417e-02 8.153935e+00 4.272248e-01))
0.00742885    	((9.111411e+01 -8.797772e-17 1.149221e+03) (8.734546e+00 -5.766463e-21 9.680357e-01)) ((-5.746107e+01 -4.106580e+02 4.555705e+00) (-4.840178e-02 8.344532e+00 4.367273e-01))
0.00802748    	((5.986450e+01 -1.229046e-16 1.643296e+03) (8.897221e+00 -8.169566e-21 9.524033e-01)) ((-8.216480e+01 -7.335613e+02 2.993225e+00) (-4.762017e-02 8.508496e+00 4.448611e-01))
0.00862611    	((1.064070e+02 -8.030268e-17 8.646094e+02) (9.007764e+00 -5.968708e-21 9.546584e-01)) ((-4.323047e+01 -3.571997e+02 5.320352e+00) (-4.773292e-02 8.612056e+00 4.503882e-01))
0.00922473    	((7.876684e+01 -7.309051e-17 1.141972e+03) (9.120194e+00 -7.795603e-21 9.367282e-01)) ((-5.709858e+01 -4.045277e+02 3.938342e+00) (-4.683641e-02 8.723136e+00 4.560097e-01))
0.00982336    	((7.920302e+01 -7.138986e-17 1.081196e+03) (9.212196e+00 -1.141685e-20 9.098257e-01)) ((-5.405979e+01 -3.702091e+02 3.960151e+00) (-4.549128e-02 8.816920e+00 4.606098e-01))
0.010422      	((6.684335e+01 -8.484018e-17 1.258366e+03) (9.282745e+00 -1.247552e-20 8.838058e-01)) ((-6.291831e+01 -4.956499e+02 3.342167e+00) (-4.419029e-02 8.887122e+00 4.641373e-01))
0.0110206     	((7.336555e+01 -7.246932e-17 1.061296e+03) (9.377505e+00 -1.002082e-20 8.604104e-01)) ((-5.306481e+01 -3.950221e+02 3.668277e+00) (-4.302052e-02 8.982026e+00 4.688752e-01))
0.0115818     	((7.547518e+01 -7.136459e-17 1.045742e+03) (9.447328e+00 -7.429912e-21 8.274477e-01)) ((-5.228711e+01 -3.709865e+02 3.773759e+00) (-4.137238e-02 9.056489e+00 4.723664e-01))
0.012077      	((7.693306e+01 -7.056864e-17 9.934288e+02) (9.500817e+00 -5.378986e-21 8.034982e-01)) ((-4.967144e+01 -3.552385e+02 3.846653e+00) (-4.017491e-02 9.113176e+00 4.750408e-01))
0.0125431     	((8.674405e+01 -7.733249e-17 8.343249e+02) (9.543259e+00 -4.190667e-21 7.809200e-01)) ((-4.171624e+01 -3.111556e+02 4.337203e+00) (-3.904600e-02 9.158733e+00 4.771629e-01))
0.0130091     	((7.110730e+01 -6.859658e-17 1.043070e+03) (9.594274e+00 -4.661974e-21 7.607098e-01)) ((-5.215351e+01 -3.809308e+02 3.555365e+00) (-3.803549e-02 9.213827e+00 4.797137e-01))
0.0134752     	((7.230915e+01 -6.189070e-17 9.742129e+02) (9.630860e+00 -5.928775e-21 7.484385e-01)) ((-4.871065e+01 -3.480208e+02 3.615457e+00) (-3.742192e-02 9.251552e+00 4.815430e-01))
0.0139412     	((7.301658e+01 -6.651562e-17 9.722401e+02) (9.659623e+00 -6.549089e-21 7.284355e-01)) ((-4.861200e+01 -3.401956e+02 3.650829e+00) (-3.642177e-02 9.282915e+00 4.829812e-01))
0.0144073     	((6.762307e+01 -6.802037e-17 9.998702e+02) (9.708341e+00 -7.589503e-21 7.097978e-01)) ((-4.999351e+01 -3.911812e+02 3.381154e+00) (-3.548989e-02 9.337528e+00 4.854170e-01))
0.0148734     	((7.554866e+01 -6.696961e-17 8.810185e+02) (9.734888e+00 -7.238505e-21 6.950544e-01)) ((-4.405093e+01 -3.179641e+02 3.777433e+00) (-3.475272e-02 9.368187e+00 4.867444e-01))
0.0153394     	((7.087936e+01 -6.613338e-17 9.589453e+02) (9.756446e+00 -6.123353e-21 6.775577e-01)) ((-4.794726e+01 -3.438690e+02 3.543968e+00) (-3.387789e-02 9.394435e+00 4.878223e-01))
0.0158055     	((7.126932e+01 -6.557795e-17 9.372502e+02) (9.770612e+00 -7.136297e-21 6.617078e-01)) ((-4.686251e+01 -3.317118e+02 3.563466e+00) (-3.308539e-02 9.411303e+00 4.885306e-01))
0.0162715     	((6.482618e+01 -6.459134e-17 9.237087e+02) (9.805269e+00 -8.997550e-21 6.520400e-01)) ((-4.618544e+01 -3.717525e+02 3.241309e+00) (-3.260200e-02 9.450592e+00 4.902635e-01))
0.0167376     	((7.021444e+01 -6.443748e-17 9.264415e+02) (9.818931e+00 -1.020347e-20 6.380881e-01)) ((-4.632208e+01 -3.287674e+02 3.510722e+00) (-3.190441e-02 9.468930e+00 4.909466e-01))
0.0172037     	((6.927779e+01 -6.463944e-17 9.333382e+02) (9.826144e+00 -9.979372e-21 6.252640e-01)) ((-4.666691e+01 -3.349558e+02 3.463890e+00) (-3.126320e-02 9.479482e+00 4.913072e-01))
0.0176697     	((6.944620e+01 -6.390486e-17 9.196199e+02) (9.825270e+00 -9.612786e-21 6.153860e-01)) ((-4.598100e+01 -3.263933e+02 3.472310e+00) (-3.076930e-02 9.479694e+00 4.912635e-01))
0.0181358     	((6.252704e+01 -6.570835e-17 1.004259e+03) (9.845843e+00 -9.482485e-21 5.992904e-01)) ((-5.021297e+01 -3.910375e+02 3.126352e+00) (-2.996452e-02 9.507522e+00 4.922921e-01))
0.0186018     	((6.823444e+01 -6.474353e-17 9.191045e+02) (9.846837e+00 -9.021920e-21 5.848776e-01)) ((-4.595523e+01 -3.291160e+02 3.411722e+00) (-2.924388e-02 9.513256e+00 4.923419e-01))
0.0190679     	((6.611538e+01 -6.430631e-17 8.516097e+02) (9.846789e+00 -9.246639e-21 5.747870e-01)) ((-4.258049e+01 -3.174347e+02 3.305769e+00) (-2.873935e-02 9.516464e+00 4.923395e-01))
0.0195339     	((6.812831e+01 -6.419244e-17 8.860759e+02) (9.834929e+00 -1.035598e-20 5.669904e-01)) ((-4.430380e+01 -3.159649e+02 3.406415e+00) (-2.834952e-02 9.505119e+00 4.917465e-01))
0.02          	((6.577359e+01 -6.410160e-17 9.259418e+02) (9.831662e+00 -9.459735e-21 5.558531e-01)) ((-4.629709e+01 -3.393262e+02 3.288679e+00) (-2.779265e-02 9.504888e+00 4.915831e-01))
0.0204878     	((6.601878e+01 -6.416614e-17 9.147557e+02) (9.820510e+00 -7.857875e-21 5.452431e-01)) ((-4.573778e+01 -3.340884e+02 3.300939e+00) (-2.726215e-02 9.496006e+00 4.910255e-01))
0.0209881     	((6.558403e+01 -6.359262e-17 9.146537e+02) (9.809897e+00 -6.141837e-21 5.342992e-01)) ((-4.573269e+01 -3.339087e+02 3.279201e+00) (-2.671496e-02 9.488081e+00 4.904948e-01))
0.0214518     	((6.545598e+01 -6.403842e-17 9.159488e+02) (9.795066e+00 -4.879174e-21 5.247366e-01)) ((-4.579744e+01 -3.348606e+02 3.272799e+00) (-2.623683e-02 9.474916e+00 4.897533e-01))
0.0219155     	((6.490477e+01 -6.346625e-17 9.145970e+02) (9.783033e+00 -3.313714e-21 5.141783e-01)) ((-4.572985e+01 -3.350289e+02 3.245238e+00) (-2.570892e-02 9.465312e+00 4.891517e-01))
0.0223792     	((6.408734e+01 -6.273770e-17 8.115078e+02) (9.764484e+00 -2.130156e-21 5.078560e-01)) ((-4.057539e+01 -2.981053e+02 3.204367e+00) (-2.539280e-02 9.447059e+00 4.882242e-01))
0.0228429     	((6.407217e+01 -6.387939e-17 9.106492e+02) (9.750161e+00 -1.676464e-21 4.994417e-01)) ((-4.553246e+01 -3.370991e+02 3.203609e+00) (-2.497209e-02 9.434242e+00 4.875080e-01))
0.0233066     	((6.468727e+01 -6.309391e-17 9.019405e+02) (9.726409e+00 -1.572170e-21 4.916132e-01)) ((-4.509703e+01 -3.285803e+02 3.234363e+00) (-2.458066e-02 9.411090e+00 4.863205e-01))
0.0237703     	((6.419486e+01 -6.294606e-17 9.037017e+02) (9.707321e+00 -1.171815e-21 4.836257e-01)) ((-4.518508e+01 -3.310317e+02 3.209743e+00) (-2.418128e-02 9.393023e+00 4.853661e-01))
0.024234      	((6.418003e+01 -6.303169e-17 8.983461e+02) (9.682731e+00 -2.519452e-22 4.766512e-01)) ((-4.491731e+01 -3.286707e+02 3.209001e+00) (-2.383256e-02 9.368803e+00 4.841366e-01))
0.0246978     	((6.373828e+01 -6.310807e-17 9.038036e+02) (9.660214e+00 -2.460562e-22 4.695059e-01)) ((-4.519018e+01 -3.320957e+02 3.186914e+00) (-2.347529e-02 9.346819e+00 4.830107e-01))
0.0251615     	((6.381318e+01 -6.263547e-17 8.987698e+02) (9.636323e+00 4.071850e-22 4.616851e-01)) ((-4.493849e+01 -3.283909e+02 3.190659e+00) (-2.308425e-02 9.323920e+00 4.818162e-01))
0.0256252     	((6.249740e+01 -6.241216e-17 8.495222e+02) (9.613991e+00 4.620298e-22 4.523500e-01)) ((-4.247611e+01 -3.117243e+02 3.124870e+00) (-2.261750e-02 9.303647e+00 4.806996e-01))
0.0260889     	((6.251225e+01 -6.236899e-17 8.502271e+02) (9.587470e+00 1.327143e-21 4.484511e-01)) ((-4.251136e+01 -3.118614e+02 3.125613e+00) (-2.242255e-02 9.276849e+00 4.793735e-01))
0.0265526     	((6.328179e+01 -6.250602e-17 8.894888e+02) (9.559669e+00 1.418046e-21 4.413281e-01)) ((-4.447444e+01 -3.256790e+02 3.164089e+00) (-2.206641e-02 9.250415e+00 4.779835e-01))
0.0270163     	((6.295676e+01 -6.273897e-17 8.962406e+02) (9.534075e+00 1.365837e-21 4.326351e-01)) ((-4.481203e+01 -3.293112e+02 3.147838e+00) (-2.163175e-02 9.227852e+00 4.767037e-01))
0.02748       	((6.310729e+01 -6.214679e-17 8.906449e+02) (9.511773e+00 2.252567e-21 4.229133e-01)) ((-4.453225e+01 -3.251658e+02 3.155364e+00) (-2.114567e-02 9.209878e+00 4.755886e-01))
0.0279437     	((6.285560e+01 -6.254846e-17 8.906215e+02) (9.488018e+00 2.753025e-21 4.151645e-01)) ((-4.453107e+01 -3.265420e+02 3.142780e+00) (-2.075823e-02 9.188935e+00 4.744009e-01))
0.0284074     	((6.279493e+01 -6.239246e-17 8.866695e+02) (9.464965e+00 3.119738e-21 4.074332e-01)) ((-4.433347e+01 -3.246364e+02 3.139747e+00) (-2.037166e-02 9.168635e+00 4.732482e-01))
0.0288711     	((6.237935e+01 -6.236352e-17 8.814433e+02) (9.444191e+00 4.124971e-21 3.946227e-01)) ((-4.407217e+01 -3.229519e+02 3.118968e+00) (-1.973113e-02 9.152958e+00 4.722095e-01))
0.0293348     	((5.951810e+01 -6.240852e-17 8.134150e+02) (9.422453e+00 3.755869e-21 3.929817e-01)) ((-4.067075e+01 -2.997495e+02 2.975905e+00) (-1.964908e-02 9.131151e+00 4.711226e-01))
0.0297985     	((6.247664e+01 -6.224146e-17 8.845087e+02) (9.399996e+00 4.218324e-21 3.864484e-01)) ((-4.422544e+01 -3.232673e+02 3.123832e+00) (-1.932242e-02 9.110885e+00 4.699998e-01))
0.0302622     	((6.231108e+01 -6.223980e-17 8.801008e+02) (9.377086e+00 4.564821e-21 3.802661e-01)) ((-4.400504e+01 -3.217818e+02 3.115554e+00) (-1.901330e-02 9.090021e+00 4.688543e-01))
0.0307259     	((6.197790e+01 -6.253081e-17 8.879272e+02) (9.354153e+00 5.077114e-21 3.742565e-01)) ((-4.439636e+01 -3.263817e+02 3.098895e+00) (-1.871283e-02 9.068998e+00 4.677076e-01))
0.0311896     	((6.197685e+01 -6.203823e-17 8.874119e+02) (9.331500e+00 5.715858e-21 3.682471e-01)) ((-4.437059e+01 -3.254403e+02 3.098842e+00) (-1.841235e-02 9.048237e+00 4.665750e-01))
0.0316533     	((6.200068e+01 -6.151540e-17 8.819256e+02) (9.308901e+00 6.258405e-21 3.622444e-01)) ((-4.409628e+01 -3.221342e+02 3.100034e+00) (-1.811222e-02 9.027584e+00 4.654450e-01))
0.032117      	((6.142702e+01 -6.196458e-17 8.823323e+02) (9.289419e+00 6.781750e-21 3.508107e-01)) ((-4.411661e+01 -3.246090e+02 3.071351e+00) (-1.754053e-02 9.012903e+00 4.644709e-01))
0.0325807     	((5.805344e+01 -6.116388e-17 7.965282e+02) (9.269036e+00 7.004761e-21 3.508574e-01)) ((-3.982641e+01 -2.911581e+02 2.902672e+00) (-1.754287e-02 8.991806e+00 4.634518e-01))
0.0330444     	((6.134221e+01 -6.198308e-17 8.839002e+02) (9.247291e+00 7.144730e-21 3.452980e-01)) ((-4.419501e+01 -3.251905e+02 3.067110e+00) (-1.726490e-02 8.971955e+00 4.623645e-01))
0.0335081     	((6.131304e+01 -6.199978e-17 8.860730e+02) (9.225183e+00 7.303877e-21 3.396869e-01)) ((-4.430365e+01 -3.256536e+02 3.065652e+00) (-1.698434e-02 8.951755e+00 4.612591e-01))
0.0339718     	((6.130209e+01 -6.186421e-17 8.834475e+02) (9.203375e+00 7.490417e-21 3.341719e-01)) ((-4.417238e+01 -3.239776e+02 3.065105e+00) (-1.670859e-02 8.931844e+00 4.601687e-01))
0.0344355     	((6.133095e+01 -6.166697e-17 8.792748e+02) (9.181385e+00 7.355010e-21 3.290487e-01)) ((-4.396374e+01 -3.217536e+02 3.066547e+00) (-1.645244e-02 8.911640e+00 4.590692e-01))
0.0348993     	((6.079242e+01 -6.233248e-17 8.875387e+02) (9.159924e+00 7.036987e-21 3.241221e-01)) ((-4.437694e+01 -3.276617e+02 3.039621e+00) (-1.620610e-02 8.891904e+00 4.579962e-01))
0.035363      	((6.078756e+01 -6.176077e-17 8.746960e+02) (9.141529e+00 6.630327e-21 3.135611e-01)) ((-4.373480e+01 -3.209948e+02 3.039378e+00) (-1.567805e-02 8.878210e+00 4.570764e-01))
0.0358267     	((5.644233e+01 -6.182852e-17 7.984868e+02) (9.121645e+00 6.254766e-21 3.131486e-01)) ((-3.992434e+01 -2.918215e+02 2.822116e+00) (-1.565743e-02 8.857842e+00 4.560822e-01))
0.0362904     	((6.054718e+01 -6.206777e-17 8.814635e+02) (9.100602e+00 6.135747e-21 3.083355e-01)) ((-4.407318e+01 -3.242558e+02 3.027359e+00) (-1.541677e-02 8.838436e+00 4.550301e-01))
0.0367541     	((6.047999e+01 -6.211018e-17 8.827586e+02) (9.080153e+00 5.981942e-21 3.035766e-01)) ((-4.413793e+01 -3.249218e+02 3.024000e+00) (-1.517883e-02 8.819679e+00 4.540077e-01))
0.0372178     	((6.034467e+01 -6.230976e-17 8.864734e+02) (9.060044e+00 5.901195e-21 2.991733e-01)) ((-4.432367e+01 -3.273180e+02 3.017233e+00) (-1.495867e-02 8.801138e+00 4.530022e-01))
0.0376815     	((6.033694e+01 -6.219159e-17 8.848216e+02) (9.040037e+00 5.805436e-21 2.948039e-01)) ((-4.424108e+01 -3.264256e+02 3.016847e+00) (-1.474019e-02 8.782675e+00 4.520019e-01))
0.0381452     	((5.994087e+01 -6.247483e-17 8.864097e+02) (9.020337e+00 5.767193e-21 2.904688e-01)) ((-4.432048e+01 -3.281996e+02 2.997043e+00) (-1.452344e-02 8.764486e+00 4.510168e-01))
0.0386089     	((5.981359e+01 -6.218247e-17 8.768820e+02) (9.004555e+00 6.241402e-21 2.797346e-01)) ((-4.384410e+01 -3.231421e+02 2.990679e+00) (-1.398673e-02 8.753773e+00 4.502278e-01))
0.0390726     	((5.487261e+01 -6.251582e-17 8.044114e+02) (8.987871e+00 6.237985e-21 2.798079e-01)) ((-4.022057e+01 -2.944754e+02 2.743631e+00) (-1.399040e-02 8.736441e+00 4.493936e-01))
0.0395363     	((5.968147e+01 -6.228477e-17 8.800948e+02) (8.969278e+00 6.255676e-21 2.761594e-01)) ((-4.400474e+01 -3.244614e+02 2.984073e+00) (-1.380797e-02 8.719078e+00 4.484639e-01))
0.04          	((5.956375e+01 -6.266515e-17 8.885658e+02) (8.951587e+00 6.165703e-21 2.723258e-01)) ((-4.442829e+01 -3.295212e+02 2.978187e+00) (-1.361629e-02 8.702855e+00 4.475793e-01))
0.0404651     	((5.947405e+01 -6.243315e-17 8.844727e+02) (8.935061e+00 5.767380e-21 2.684074e-01)) ((-4.422364e+01 -3.275729e+02 2.973703e+00) (-1.342037e-02 8.687906e+00 4.467530e-01))
0.0409302     	((5.945552e+01 -6.261672e-17 8.908196e+02) (8.918208e+00 5.467588e-21 2.646984e-01)) ((-4.454098e+01 -3.308103e+02 2.972776e+00) (-1.323492e-02 8.672500e+00 4.459104e-01))
0.0413953     	((5.888139e+01 -6.296925e-17 8.932697e+02) (8.901979e+00 5.464555e-21 2.607087e-01)) ((-4.466348e+01 -3.333005e+02 2.944069e+00) (-1.303544e-02 8.657925e+00 4.450989e-01))
0.0418605     	((5.866152e+01 -6.267369e-17 8.848146e+02) (8.889657e+00 8.213076e-21 2.489240e-01)) ((-4.424073e+01 -3.289332e+02 2.933076e+00) (-1.244620e-02 8.651663e+00 4.444828e-01))
0.0423256     	((5.351594e+01 -6.254203e-17 8.040130e+02) (8.876464e+00 5.966625e-21 2.514906e-01)) ((-4.020065e+01 -2.937042e+02 2.675797e+00) (-1.257453e-02 8.636654e+00 4.438232e-01))
0.0427907     	((5.881388e+01 -6.243319e-17 8.868217e+02) (8.860253e+00 5.936201e-21 2.484367e-01)) ((-4.434109e+01 -3.294337e+02 2.940694e+00) (-1.242184e-02 8.621538e+00 4.430127e-01))
0.0432558     	((5.901632e+01 -6.240202e-17 8.912254e+02) (8.845155e+00 5.651012e-21 2.454652e-01)) ((-4.456127e+01 -3.315136e+02 2.950816e+00) (-1.227326e-02 8.607580e+00 4.422577e-01))
0.0437209     	((5.882995e+01 -6.245279e-17 8.906638e+02) (8.830414e+00 4.620124e-21 2.424131e-01)) ((-4.453319e+01 -3.316371e+02 2.941498e+00) (-1.212066e-02 8.594039e+00 4.415207e-01))
0.044186      	((5.867890e+01 -6.262742e-17 8.917827e+02) (8.815704e+00 3.995036e-21 2.393209e-01)) ((-4.458914e+01 -3.324583e+02 2.933945e+00) (-1.196604e-02 8.580548e+00 4.407852e-01))
0.0446512     	((5.861034e+01 -6.286592e-17 8.946381e+02) (8.801587e+00 3.516234e-21 2.354867e-01)) ((-4.473191e+01 -3.339084e+02 2.930517e+00) (-1.177434e-02 8.568125e+00 4.400794e-01))
0.0451163     	((5.796478e+01 -6.312833e-17 8.860605e+02) (8.790436e+00 5.623880e-21 2.262512e-01)) ((-4.430302e+01 -3.302358e+02 2.898239e+00) (-1.131256e-02 8.561929e+00 4.395218e-01))
0.0455814     	((5.238488e+01 -6.346615e-17 8.074220e+02) (8.778430e+00 2.520450e-21 2.276342e-01)) ((-4.037110e+01 -2.948281e+02 2.619244e+00) (-1.138171e-02 8.548871e+00 4.389215e-01))
0.0460465     	((5.794028e+01 -6.328319e-17 8.892591e+02) (8.765005e+00 1.349498e-21 2.253152e-01)) ((-4.446295e+01 -3.318248e+02 2.897014e+00) (-1.126576e-02 8.536512e+00 4.382502e-01))
0.0465116     	((5.801295e+01 -6.331652e-17 8.914341e+02) (8.750656e+00 2.325199e-22 2.227973e-01)) ((-4.457170e+01 -3.331344e+02 2.900647e+00) (-1.113986e-02 8.523362e+00 4.375328e-01))
0.0469767     	((5.810999e+01 -6.332872e-17 8.960707e+02) (8.737371e+00 -1.166031e-21 2.199313e-01)) ((-4.480353e+01 -3.355631e+02 2.905500e+00) (-1.099656e-02 8.511578e+00 4.368686e-01))
0.0474419     	((5.777889e+01 -6.341245e-17 8.958896e+02) (8.729399e+00 -2.825551e-21 2.151366e-01)) ((-4.479448e+01 -3.360215e+02 2.888945e+00) (-1.075683e-02 8.506636e+00 4.364700e-01))
0.047907      	((5.784364e+01 -6.342575e-17 9.007312e+02) (8.722414e+00 -3.960025e-21 2.101770e-01)) ((-4.503656e+01 -3.384050e+02 2.892182e+00) (-1.050885e-02 8.503020e+00 4.361207e-01))
0.0483721     	((5.700655e+01 -6.359633e-17 8.932185e+02) (8.719280e+00 -3.091982e-21 2.002188e-01)) ((-4.466092e+01 -3.355005e+02 2.850327e+00) (-1.001094e-02 8.506637e+00 4.359640e-01))
0.0488372     	((5.022837e+01 -9.050064e-17 8.070011e+02) (8.715379e+00 -4.584439e-21 1.992596e-01)) ((-4.035005e+01 -2.955813e+02 2.511418e+00) (-9.962978e-03 8.504443e+00 4.357690e-01))
0.0493023     	((5.740869e+01 -6.364329e-17 9.067839e+02) (8.707430e+00 -4.245422e-21 1.934182e-01)) ((-4.533919e+01 -3.424927e+02 2.870435e+00) (-9.670912e-03 8.501253e+00 4.353715e-01))
0.0497674     	((5.698516e+01 -6.428584e-17 9.036479e+02) (8.697081e+00 -3.677132e-21 1.873079e-01)) ((-4.518240e+01 -3.415629e+02 2.849258e+00) (-9.365395e-03 8.495960e+00 4.348541e-01))
0.0502326     	((5.666053e+01 -6.519412e-17 9.025482e+02) (8.686342e+00 -3.470668e-21 1.794886e-01)) ((-4.512741e+01 -3.414642e+02 2.833026e+00) (-8.974430e-03 8.491350e+00 4.343171e-01))
0.0506977     	((5.679728e+01 -6.432065e-17 9.080886e+02) (8.674211e+00 -2.386438e-21 1.744033e-01)) ((-4.540443e+01 -3.444479e+02 2.839864e+00) (-8.720163e-03 8.483022e+00 4.337106e-01))
0.0511628     	((5.650093e+01 -6.491679e-17 9.080169e+02) (8.661341e+00 -7.709211e-22 1.715469e-01)) ((-4.540085e+01 -3.447476e+02 2.825046e+00) (-8.577347e-03 8.471837e+00 4.330671e-01))
0.0516279     	((5.562415e+01 -6.704255e-17 9.010828e+02) (8.650423e+00 6.276730e-22 1.638243e-01)) ((-4.505414e+01 -3.419419e+02 2.781208e+00) (-8.191216e-03 8.465545e+00 4.325211e-01))
0.052093      	((4.858046e+01 -7.802936e-17 8.182061e+02) (8.639711e+00 -2.694486e-21 1.675083e-01)) ((-4.091031e+01 -3.019373e+02 2.429023e+00) (-8.375416e-03 8.452385e+00 4.319856e-01))
0.0525581     	((5.617165e+01 -6.502596e-17 9.172752e+02) (8.627296e+00 -2.493711e-21 1.654936e-01)) ((-4.586376e+01 -3.504001e+02 2.808582e+00) (-8.274678e-03 8.440999e+00 4.313648e-01))
0.0530233     	((5.609432e+01 -6.496639e-17 9.190699e+02) (8.620058e+00 1.746857e-21 1.605865e-01)) ((-4.595350e+01 -3.516240e+02 2.804716e+00) (-8.029324e-03 8.437094e+00 4.310029e-01))
0.0534884     	((5.518508e+01 -6.637884e-17 9.115015e+02) (8.614006e+00 1.286385e-20 1.550414e-01)) ((-4.557508e+01 -3.485862e+02 2.759254e+00) (-7.752070e-03 8.435255e+00 4.307003e-01))
0.0539535     	((5.561997e+01 -6.542150e-17 9.211136e+02) (8.593356e+00 1.648420e-20 1.479406e-01)) ((-4.605568e+01 -3.536918e+02 2.780999e+00) (-7.397028e-03 8.420181e+00 4.296678e-01))
0.0544186     	((5.510276e+01 -6.622901e-17 9.187949e+02) (8.570296e+00 1.909323e-20 1.446311e-01)) ((-4.593975e+01 -3.530635e+02 2.755138e+00) (-7.231554e-03 8.398993e+00 4.285148e-01))
0.0548837     	((5.225605e+01 -6.941272e-17 8.896257e+02) (8.555320e+00 1.772688e-20 1.418164e-01)) ((-4.448129e+01 -3.387510e+02 2.612802e+00) (-7.090819e-03 8.385683e+00 4.277660e-01))
0.0553488     	((4.819638e+01 -7.391300e-17 8.464499e+02) (8.542674e+00 1.482762e-20 1.375630e-01)) ((-4.232249e+01 -3.174751e+02 2.409819e+00) (-6.878150e-03 8.375987e+00 4.271337e-01))
0.055814      	((5.478112e+01 -6.641092e-17 9.303421e+02) (8.523555e+00 1.141533e-20 1.330343e-01)) ((-4.651710e+01 -3.600537e+02 2.739056e+00) (-6.651715e-03 8.359484e+00 4.261777e-01))
0.0562791     	((5.480984e+01 -6.619268e-17 9.346894e+02) (8.500291e+00 6.402127e-21 1.272979e-01)) ((-4.673447e+01 -3.625157e+02 2.740492e+00) (-6.364897e-03 8.339894e+00 4.250145e-01))
0.0567442     	((5.439421e+01 -6.661162e-17 9.342550e+02) (8.480543e+00 8.927564e-22 1.208104e-01)) ((-4.671275e+01 -3.630418e+02 2.719711e+00) (-6.040518e-03 8.324577e+00 4.240272e-01))
0.0572093     	((5.359641e+01 -6.717938e-17 9.295358e+02) (8.464936e+00 -6.426965e-21 1.154419e-01)) ((-4.647679e+01 -3.612193e+02 2.679821e+00) (-5.772096e-03 8.312763e+00 4.232468e-01))
0.0576744     	((5.336573e+01 -6.719537e-17 9.321305e+02) (8.451881e+00 -1.057983e-20 1.111959e-01)) ((-4.660652e+01 -3.630712e+02 2.668287e+00) (-5.559796e-03 8.302828e+00 4.225941e-01))
0.0581395     	((4.810738e+01 -7.171576e-17 8.779116e+02) (8.442890e+00 -1.505704e-20 1.050207e-01)) ((-4.389558e+01 -3.356042e+02 2.405369e+00) (-5.251034e-03 8.298412e+00 4.221445e-01))
0.0586047     	((4.772081e+01 -7.190234e-17 8.795163e+02) (8.437832e+00 -1.799410e-20 9.673334e-02)) ((-4.397582e+01 -3.368861e+02 2.386041e+00) (-4.836667e-03 8.299565e+00 4.218916e-01))
0.0590698     	((5.322910e+01 -6.728662e-17 9.481061e+02) (8.432903e+00 -1.897166e-20 8.768310e-02)) ((-4.740531e+01 -3.728713e+02 2.661455e+00) (-4.384155e-03 8.301435e+00 4.216451e-01))
0.0595349     	((5.319760e+01 -6.720351e-17 9.533260e+02) (8.425063e+00 -1.820160e-20 7.853868e-02)) ((-4.766630e+01 -3.759148e+02 2.659880e+00) (-3.926934e-03 8.300511e+00 4.212531e-01))
0.06          	((5.281969e+01 -6.749147e-17 9.553864e+02) (8.411249e+00 -1.648534e-20 6.899951e-02)) ((-4.776932e+01 -3.777197e+02 2.640985e+00) (-3.449976e-03 8.293858e+00 4.205625e-01))
0.0604651     	((5.221151e+01 -6.750259e-17 9.554866e+02) (8.390500e+00 -1.372142e-20 6.301745e-02)) ((-4.777433e+01 -3.783917e+02 2.610575e+00) (-3.150873e-03 8.277856e+00 4.195250e-01))
0.0609302     	((5.083230e+01 -6.872804e-17 9.470754e+02) (8.366350e+00 -1.171262e-20 5.545702e-02)) ((-4.735377e+01 -3.750704e+02 2.541615e+00) (-2.772851e-03 8.259637e+00 4.183175e-01))
0.0613953     	((3.916989e+01 -7.637123e-17 8.281398e+02) (8.345746e+00 -1.129346e-20 4.416083e-02)) ((-4.140699e+01 -3.120414e+02 1.958495e+00) (-2.208041e-03 8.247843e+00 4.172873e-01))
0.0618605     	((5.139262e+01 -6.812777e-17 9.664335e+02) (8.323221e+00 -9.191307e-21 3.376628e-02)) ((-4.832168e+01 -3.865963e+02 2.569631e+00) (-1.688314e-03 8.233527e+00 4.161611e-01))
0.0623256     	((5.114211e+01 -6.827618e-17 9.690969e+02) (8.299744e+00 -6.900179e-21 2.322760e-02)) ((-4.845484e+01 -3.884338e+02 2.557105e+00) (-1.161380e-03 8.218261e+00 4.149872e-01))
0.0627907     	((5.109786e+01 -6.813814e-17 9.750408e+02) (8.280114e+00 -5.136816e-21 1.128114e-02)) ((-4.875204e+01 -3.919779e+02 2.554893e+00) (-5.640570e-04 8.207729e+00 4.140057e-01))
0.0632558     	((5.009786e+01 -6.618795e-17 9.711984e+02) (8.263754e+00 -1.092653e-21 3.039287e-03)) ((-4.855992e+01 -3.901829e+02 2.504893e+00) (-1.519644e-04 8.198014e+00 4.131877e-01))
0.0637209     	((4.964112e+01 -6.819902e-17 9.715943e+02) (8.253465e+00 -2.465748e-22 -7.874297e-03)) ((-4.857972e+01 -3.908531e+02 2.482056e+00) (3.937149e-04 8.196486e+00 4.126732e-01))
0.064186      	((4.876382e+01 -6.586794e-17 9.685729e+02) (8.250075e+00 -3.583696e-21 -2.065690e-02)) ((-4.842864e+01 -3.897525e+02 2.438191e+00) (1.032845e-03 8.203362e+00 4.125037e-01))
0.0646512     	((3.699312e+01 -4.622700e-17 8.549480e+02) (8.252492e+00 -2.138200e-21 -3.491386e-02)) ((-4.274740e+01 -3.276022e+02 1.849656e+00) (1.745693e-03 8.217232e+00 4.126246e-01))
0.0651163     	((4.950179e+01 -6.883943e-17 9.879497e+02) (8.252900e+00 -1.680719e-21 -4.812297e-02)) ((-4.939749e+01 -4.017553e+02 2.475090e+00) (2.406148e-03 8.228258e+00 4.126450e-01))
0.0655814     	((4.892061e+01 -6.909207e-17 9.873664e+02) (8.249465e+00 -1.686557e-21 -5.898952e-02)) ((-4.936832e+01 -4.019700e+02 2.446030e+00) (2.949476e-03 8.233531e+00 4.124732e-01))
0.0660465     	((4.889615e+01 -6.899158e-17 9.952131e+02) (8.242824e+00 -1.450437e-21 -7.064940e-02)) ((-4.976065e+01 -4.069313e+02 2.444807e+00) (3.532470e-03 8.235960e+00 4.121412e-01))
0.0665116     	((4.767019e+01 -6.841397e-17 9.931532e+02) (8.233940e+00 -4.319550e-21 -8.303301e-02)) ((-4.965766e+01 -4.065433e+02 2.383509e+00) (4.151651e-03 8.236441e+00 4.116970e-01))
0.0669767     	((4.677751e+01 -6.598487e-17 9.940657e+02) (8.223058e+00 -7.000313e-21 -9.420450e-02)) ((-4.970329e+01 -4.076938e+02 2.338875e+00) (4.710225e-03 8.233870e+00 4.111529e-01))
0.0674419     	((3.210481e+01 -5.421221e-17 8.621771e+02) (8.213583e+00 -8.717581e-21 -1.067893e-01)) ((-4.310885e+01 -3.326717e+02 1.605240e+00) (5.339463e-03 8.233689e+00 4.106792e-01))
0.067907      	((4.685658e+01 -6.831616e-17 1.011063e+03) (8.198678e+00 -1.230250e-20 -1.139443e-01)) ((-5.055313e+01 -4.182807e+02 2.342829e+00) (5.697215e-03 8.223779e+00 4.099339e-01))
0.0683721     	((4.717185e+01 -6.826501e-17 1.017482e+03) (8.181308e+00 -1.540756e-20 -1.222414e-01)) ((-5.087410e+01 -4.221469e+02 2.358592e+00) (6.112068e-03 8.212126e+00 4.090654e-01))