# Forces      
# CofR        : (0.000000e+00 0.000000e+00 -1.000000e+00)
# Time        forces(pressure viscous)	moments(pressure viscous)
0             	((-1.421085e-14 1.504542e-17 0.000000e+00) (4.617742e+00 -1.957457e-20 5.386510e-01)) ((-1.421085e-14 -5.684342e-14 3.552714e-15) (-2.693255e-02 4.352062e+00 2.308871e-01))
1.19976e-05   	((9.774506e+04 -2.567968e-14 4.285891e+05) (4.650192e+00 -1.307158e-20 4.972241e-01)) ((-2.142946e+04 -2.838717e+04 4.887253e+03) (-2.486120e-02 4.396911e+00 2.325096e-01))
2.63878e-05   	((1.503075e+04 -4.269918e-15 7.231590e+04) (4.656060e+00 -1.533525e-20 4.861446e-01)) ((-3.615795e+03 -7.738657e+03 7.515373e+02) (-2.430723e-02 4.402929e+00 2.328030e-01))
4.36511e-05   	((8.451967e+03 -2.375327e-15 3.897171e+04) (4.667058e+00 -1.186441e-20 4.819016e-01)) ((-1.948585e+03 -3.522546e+03 4.225983e+02) (-2.409508e-02 4.413633e+00 2.333529e-01))
6.43527e-05   	((5.621575e+03 -1.581127e-15 2.699218e+04) (4.682686e+00 -1.141049e-20 4.796181e-01)) ((-1.349609e+03 -2.767519e+03 2.810787e+02) (-2.398090e-02 4.429057e+00 2.341343e-01))
8.91792e-05   	((4.444480e+03 -1.139057e-15 1.848679e+04) (4.700995e+00 -9.656108e-21 4.797543e-01)) ((-9.243393e+02 -1.566158e+03 2.222240e+02) (-2.398771e-02 4.446293e+00 2.350498e-01))
0.000118941   	((3.035255e+03 -8.093162e-16 1.376033e+04) (4.721256e+00 -9.017200e-21 4.794901e-01)) ((-6.880167e+02 -1.362896e+03 1.517627e+02) (-2.397451e-02 4.465946e+00 2.360628e-01))
0.000154634   	((2.535682e+03 -6.657480e-16 1.079490e+04) (4.745892e+00 -8.382246e-21 4.799596e-01)) ((-5.397451e+02 -9.466580e+02 1.267841e+02) (-2.399798e-02 4.489780e+00 2.372946e-01))
0.000197405   	((1.722795e+03 -6.270555e-16 1.116568e+04) (4.774543e+00 -6.579193e-21 4.800962e-01)) ((-5.582840e+02 -2.706441e+03 8.613974e+01) (-2.400481e-02 4.518119e+00 2.387271e-01))
0.000248707   	((1.630178e+03 -4.447702e-16 7.123959e+03) (4.809007e+00 -5.853187e-21 4.812853e-01)) ((-3.561980e+02 -8.450831e+02 8.150890e+01) (-2.406426e-02 4.551565e+00 2.404504e-01))
0.000310237   	((1.335933e+03 -3.370305e-16 5.278293e+03) (4.849732e+00 -6.039532e-21 4.829241e-01)) ((-2.639146e+02 -4.589521e+02 6.679663e+01) (-2.414621e-02 4.591007e+00 2.424866e-01))
0.000383982   	((1.122360e+03 -9.081212e-16 5.905336e+03) (4.899662e+00 -5.854401e-21 4.859161e-01)) ((-2.952668e+02 -1.545172e+03 5.611799e+01) (-2.429581e-02 4.639187e+00 2.449831e-01))
0.000472342   	((1.078781e+03 -3.510899e-16 3.911530e+03) (4.960822e+00 -4.349047e-21 4.886452e-01)) ((-1.955765e+02 -3.785048e+02 5.393905e+01) (-2.443226e-02 4.698310e+00 2.480411e-01))
0.000577897   	((9.082554e+02 -2.794048e-16 3.325141e+03) (5.035835e+00 -4.051802e-21 4.912044e-01)) ((-1.662570e+02 -3.390350e+02 4.541277e+01) (-2.456022e-02 4.771223e+00 2.517917e-01))
0.000704014   	((9.061449e+02 -4.402182e-16 3.645245e+03) (5.131377e+00 -5.729411e-21 4.951586e-01)) ((-1.822622e+02 -8.619371e+02 4.530725e+01) (-2.475793e-02 4.864500e+00 2.565689e-01))
0.000854764   	((1.366060e+03 -3.577830e-16 3.166340e+03) (5.261656e+00 -5.317339e-21 4.976718e-01)) ((-1.583170e+02 -1.107807e+02 6.830299e+01) (-2.488359e-02 4.990783e+00 2.630828e-01))
0.00103538    	((1.907834e+03 -5.023029e-16 3.405583e+03) (5.445598e+00 -7.665699e-21 4.894403e-01)) ((-1.702791e+02 -1.030932e+02 9.539168e+01) (-2.447201e-02 5.172865e+00 2.722799e-01))
0.00125089    	((4.828910e+02 -2.360320e-16 2.430380e+03) (5.647610e+00 -7.171801e-21 4.962068e-01)) ((-1.215190e+02 -7.751266e+02 2.414455e+01) (-2.481034e-02 5.371575e+00 2.823805e-01))
0.00150772    	((4.656137e+02 -1.708470e-16 1.176049e+03) (5.900495e+00 -4.806356e-21 5.135648e-01)) ((-5.880243e+01 -9.578254e+01 2.328069e+01) (-2.567824e-02 5.615402e+00 2.950248e-01))
0.00181593    	((2.809403e+02 -3.228282e-16 1.940087e+03) (6.202502e+00 -8.155797e-22 5.311976e-01)) ((-9.700437e+01 -6.456666e+02 1.404701e+01) (-2.655988e-02 5.910776e+00 3.101251e-01))
0.00217961    	((3.014081e+02 -1.514736e-16 1.165339e+03) (6.548065e+00 1.517096e-21 5.631360e-01)) ((-5.826694e+01 -2.536330e+02 1.507041e+01) (-2.815680e-02 6.241666e+00 3.274033e-01))
0.00261425    	((2.477102e+02 -1.656450e-16 1.156720e+03) (6.933958e+00 8.279531e-23 5.929230e-01)) ((-5.783600e+01 -3.470322e+02 1.238551e+01) (-2.964615e-02 6.616675e+00 3.466979e-01))
0.0031256     	((1.711072e+02 -1.309184e-16 1.321534e+03) (7.351211e+00 4.801679e-21 6.200022e-01)) ((-6.607669e+01 -4.336128e+02 8.555360e+00) (-3.100011e-02 7.024960e+00 3.675605e-01))
0.00372826    	((1.836620e+02 -1.000334e-16 8.734372e+02) (7.801254e+00 7.904570e-21 6.496609e-01)) ((-4.367186e+01 -2.277113e+02 9.183101e+00) (-3.248305e-02 7.464775e+00 3.900627e-01))
0.00443572    	((1.105585e+02 -1.285787e-16 1.338231e+03) (8.268119e+00 1.362534e-20 6.736937e-01)) ((-6.691157e+01 -5.438700e+02 5.527923e+00) (-3.368469e-02 7.927351e+00 4.134059e-01))
0.0052549     	((6.262333e+01 -1.303181e-16 2.231206e+03) (8.719139e+00 -4.462557e-21 6.872340e-01)) ((-1.115603e+02 -1.225477e+03 3.131167e+00) (-3.436170e-02 8.388533e+00 4.359569e-01))
0.00612225    	((1.106004e+02 -5.063681e-17 7.133968e+02) (9.140691e+00 -4.253726e-21 6.980863e-01)) ((-3.566984e+01 -1.868061e+02 5.530021e+00) (-3.490431e-02 8.813732e+00 4.570346e-01))
0.00693859    	((1.071013e+02 -4.505923e-17 6.158657e+02) (9.484219e+00 -5.413102e-21 7.101066e-01)) ((-3.079329e+01 -1.643891e+02 5.355063e+00) (-3.550533e-02 9.158989e+00 4.742109e-01))
0.00780935    	((8.193554e+01 -4.851856e-17 7.349669e+02) (9.799371e+00 -6.842986e-21 7.168591e-01)) ((-3.674834e+01 -2.223292e+02 4.096777e+00) (-3.584296e-02 9.477803e+00 4.899685e-01))
0.00868011    	((7.457989e+01 -5.249504e-17 7.281221e+02) (1.006685e+01 -6.454075e-21 7.280556e-01)) ((-3.640611e+01 -2.421910e+02 3.728994e+00) (-3.640278e-02 9.746811e+00 5.033423e-01))
0.00955087    	((5.293014e+01 -8.357984e-17 1.120477e+03) (1.029904e+01 -6.521679e-21 7.336906e-01)) ((-5.602383e+01 -5.108061e+02 2.646507e+00) (-3.668453e-02 9.982753e+00 5.149521e-01))
0.0103547     	((7.106037e+01 -5.565379e-17 7.072056e+02) (1.048414e+01 -6.769404e-21 7.390343e-01)) ((-3.536028e+01 -2.689068e+02 3.553018e+00) (-3.695171e-02 1.017098e+01 5.242069e-01))
0.0111584     	((6.846037e+01 -5.255399e-17 7.178882e+02) (1.064579e+01 -7.205063e-21 7.404624e-01)) ((-3.589441e+01 -2.559454e+02 3.423019e+00) (-3.702312e-02 1.033757e+01 5.322897e-01))
0.0119622     	((6.640515e+01 -5.212856e-17 7.319542e+02) (1.078837e+01 -6.807756e-21 7.376201e-01)) ((-3.659771e+01 -2.594247e+02 3.320258e+00) (-3.688101e-02 1.048702e+01 5.394186e-01))
0.012766      	((6.324156e+01 -5.150115e-17 7.245820e+02) (1.090408e+01 -6.293839e-21 7.378478e-01)) ((-3.622910e+01 -2.691472e+02 3.162078e+00) (-3.689239e-02 1.060741e+01 5.452041e-01))
0.0135698     	((5.179963e+01 -5.381201e-17 8.440092e+02) (1.099411e+01 -6.150876e-21 7.436429e-01)) ((-4.220046e+01 -3.743365e+02 2.589982e+00) (-3.718214e-02 1.069644e+01 5.497057e-01))
0.0142842     	((5.466453e+01 -5.325152e-17 8.357689e+02) (1.105954e+01 -5.120606e-21 7.419298e-01)) ((-4.178844e+01 -3.494758e+02 2.733227e+00) (-3.709649e-02 1.076386e+01 5.529768e-01))
0.0149987     	((5.751446e+01 -5.131228e-17 7.779548e+02) (1.113359e+01 -6.112351e-21 7.295868e-01)) ((-3.889774e+01 -3.098493e+02 2.875723e+00) (-3.647934e-02 1.084688e+01 5.566794e-01))
0.0157132     	((6.111199e+01 -4.981144e-17 6.443798e+02) (1.118679e+01 -4.774750e-21 7.250953e-01)) ((-3.221899e+01 -2.417580e+02 3.055599e+00) (-3.625476e-02 1.090473e+01 5.593396e-01))
0.0164276     	((6.155738e+01 -4.958553e-17 6.961397e+02) (1.122392e+01 -3.973814e-21 7.174427e-01)) ((-3.480699e+01 -2.547081e+02 3.077869e+00) (-3.587214e-02 1.094590e+01 5.611962e-01))
0.0171421     	((5.731240e+01 -4.985465e-17 7.445644e+02) (1.127063e+01 -4.251086e-21 7.033976e-01)) ((-3.722822e+01 -2.922890e+02 2.865620e+00) (-3.516988e-02 1.100135e+01 5.635317e-01))
0.0178566     	((6.021700e+01 -4.931105e-17 6.967865e+02) (1.129347e+01 -4.418445e-21 6.872712e-01)) ((-3.483932e+01 -2.596634e+02 3.010850e+00) (-3.436356e-02 1.103200e+01 5.646736e-01))
0.0185711     	((5.835942e+01 -4.899305e-17 6.884940e+02) (1.130251e+01 -4.714925e-21 6.732210e-01)) ((-3.442470e+01 -2.617452e+02 2.917971e+00) (-3.366105e-02 1.104669e+01 5.651255e-01))
0.0192855     	((5.929889e+01 -4.848967e-17 6.429631e+02) (1.129874e+01 -5.917462e-21 6.618614e-01)) ((-3.214815e+01 -2.386297e+02 2.964945e+00) (-3.309307e-02 1.104593e+01 5.649368e-01))
0.02          	((5.362239e+01 -5.013603e-17 7.642797e+02) (1.130427e+01 -6.631190e-21 6.413729e-01)) ((-3.821399e+01 -3.139845e+02 2.681119e+00) (-3.206865e-02 1.106076e+01 5.652135e-01))
0.0207692     	((5.815275e+01 -4.895525e-17 6.996742e+02) (1.128189e+01 -8.411045e-21 6.210990e-01)) ((-3.498371e+01 -2.663206e+02 2.907638e+00) (-3.105495e-02 1.104502e+01 5.640946e-01))
0.0215385     	((5.733935e+01 -4.903931e-17 7.002258e+02) (1.124942e+01 -8.009719e-21 5.968050e-01)) ((-3.501129e+01 -2.690921e+02 2.866968e+00) (-2.984025e-02 1.101964e+01 5.624711e-01))
0.0223077     	((5.711352e+01 -4.847270e-17 6.310728e+02) (1.120670e+01 -7.180685e-21 5.823122e-01)) ((-3.155364e+01 -2.384969e+02 2.855676e+00) (-2.911561e-02 1.097698e+01 5.603350e-01))
0.0230769     	((5.065559e+01 -5.057883e-17 7.813411e+02) (1.119227e+01 -4.028220e-21 5.536768e-01)) ((-3.906706e+01 -3.320289e+02 2.532780e+00) (-2.768384e-02 1.097361e+01 5.596137e-01))
0.0238462     	((5.587176e+01 -4.998216e-17 7.124324e+02) (1.115955e+01 -1.686465e-21 5.278324e-01)) ((-3.562162e+01 -2.802424e+02 2.793588e+00) (-2.639162e-02 1.094872e+01 5.579773e-01))
0.0246154     	((5.519191e+01 -4.980817e-17 7.151356e+02) (1.112877e+01 7.617339e-22 5.028460e-01)) ((-3.575678e+01 -2.839923e+02 2.759595e+00) (-2.514230e-02 1.092527e+01 5.564385e-01))
0.0253846     	((5.592460e+01 -4.891853e-17 6.586232e+02) (1.109798e+01 2.062891e-21 4.826247e-01)) ((-3.293116e+01 -2.525950e+02 2.796230e+00) (-2.413124e-02 1.089753e+01 5.548991e-01))
0.0261538     	((4.883712e+01 -5.131042e-17 7.591159e+02) (1.109378e+01 2.295313e-21 4.586363e-01)) ((-3.795579e+01 -3.267472e+02 2.441856e+00) (-2.293182e-02 1.090344e+01 5.546891e-01))
0.0269231     	((5.496856e+01 -4.959364e-17 7.069542e+02) (1.107646e+01 4.813312e-21 4.372295e-01)) ((-3.534771e+01 -2.804295e+02 2.748428e+00) (-2.186147e-02 1.089372e+01 5.538228e-01))
0.0276923     	((5.543534e+01 -4.941282e-17 6.989694e+02) (1.105353e+01 7.167407e-21 4.224695e-01)) ((-3.494847e+01 -2.741248e+02 2.771767e+00) (-2.112348e-02 1.087300e+01 5.526766e-01))
0.0284615     	((4.979927e+01 -5.089615e-17 7.698093e+02) (1.105907e+01 8.364485e-21 3.948396e-01)) ((-3.849046e+01 -3.278849e+02 2.489964e+00) (-1.974198e-02 1.089233e+01 5.529537e-01))
0.0292308     	((5.119682e+01 -4.990533e-17 6.682897e+02) (1.104405e+01 1.184525e-20 3.827835e-01)) ((-3.341449e+01 -2.710440e+02 2.559841e+00) (-1.913917e-02 1.088079e+01 5.522023e-01))
0.03          	((5.487272e+01 -4.927074e-17 6.969575e+02) (1.101518e+01 1.433533e-20 3.727764e-01)) ((-3.484787e+01 -2.740574e+02 2.743636e+00) (-1.863882e-02 1.085219e+01 5.507589e-01))
0.0307692     	((4.721879e+01 -5.171059e-17 8.000512e+02) (1.102716e+01 1.484286e-20 3.515664e-01)) ((-4.000256e+01 -3.511613e+02 2.360940e+00) (-1.757832e-02 1.087597e+01 5.513579e-01))
0.0315385     	((5.153993e+01 -5.020896e-17 7.395932e+02) (1.101218e+01 1.585448e-20 3.346114e-01)) ((-3.697966e+01 -3.064070e+02 2.576997e+00) (-1.673057e-02 1.086907e+01 5.506089e-01))
0.0323077     	((5.027486e+01 -4.978929e-17 6.487729e+02) (1.098313e+01 1.451187e-20 3.303490e-01)) ((-3.243865e+01 -2.605757e+02 2.513743e+00) (-1.651745e-02 1.083886e+01 5.491565e-01))
0.0330769     	((4.953790e+01 -5.065899e-17 7.618251e+02) (1.097409e+01 1.502115e-20 3.173370e-01)) ((-3.809125e+01 -3.232496e+02 2.476895e+00) (-1.586685e-02 1.083578e+01 5.487046e-01))
0.0338462     	((5.009517e+01 -5.052392e-17 7.505255e+02) (1.094845e+01 1.564773e-20 3.074019e-01)) ((-3.752627e+01 -3.152622e+02 2.504758e+00) (-1.537009e-02 1.081336e+01 5.474227e-01))
0.0346154     	((4.985434e+01 -5.040799e-17 7.536861e+02) (1.092427e+01 1.672478e-20 2.963654e-01)) ((-3.768431e+01 -3.178067e+02 2.492717e+00) (-1.481827e-02 1.079331e+01 5.462136e-01))
0.0352885     	((4.498114e+01 -5.075363e-17 6.925278e+02) (1.089945e+01 1.647992e-20 2.896689e-01)) ((-3.462639e+01 -2.954799e+02 2.249057e+00) (-1.448344e-02 1.077005e+01 5.449723e-01))
0.0359615     	((4.797424e+01 -5.063048e-17 7.509497e+02) (1.087144e+01 1.668890e-20 2.826750e-01)) ((-3.754749e+01 -3.200340e+02 2.398712e+00) (-1.413375e-02 1.074400e+01 5.435719e-01))
0.0366346     	((4.834371e+01 -5.064138e-17 7.681295e+02) (1.084121e+01 1.858643e-20 2.741981e-01)) ((-3.840647e+01 -3.282143e+02 2.417186e+00) (-1.370991e-02 1.071727e+01 5.420604e-01))
0.0373077     	((4.763006e+01 -5.095944e-17 7.704121e+02) (1.080927e+01 2.135134e-20 2.648650e-01)) ((-3.852061e+01 -3.318024e+02 2.381503e+00) (-1.324325e-02 1.068989e+01 5.404635e-01))
0.0379808     	((4.664149e+01 -5.264120e-17 7.685411e+02) (1.078107e+01 1.887601e-20 2.477191e-01)) ((-3.842706e+01 -3.329748e+02 2.332075e+00) (-1.238596e-02 1.067155e+01 5.390534e-01))
0.0386538     	((4.211124e+01 -6.845807e-17 7.046108e+02) (1.074680e+01 1.547435e-20 2.428795e-01)) ((-3.523054e+01 -3.050539e+02 2.105562e+00) (-1.214398e-02 1.063991e+01 5.373402e-01))
0.0393269     	((4.639140e+01 -5.232894e-17 7.837238e+02) (1.069598e+01 1.409867e-20 2.338569e-01)) ((-3.918619e+01 -3.406692e+02 2.319570e+00) (-1.169285e-02 1.059379e+01 5.347989e-01))
0.04          	((4.657960e+01 -5.169127e-17 7.874864e+02) (1.062418e+01 1.325075e-20 2.267952e-01)) ((-3.937432e+01 -3.424047e+02 2.328980e+00) (-1.133976e-02 1.052498e+01 5.312092e-01))
0.0407407     	((4.622043e+01 -5.227395e-17 7.843730e+02) (1.053588e+01 1.713200e-20 2.163196e-01)) ((-3.921865e+01 -3.417528e+02 2.311022e+00) (-1.081598e-02 1.044221e+01 5.267942e-01))
0.0414815     	((4.004950e+01 -6.116469e-17 7.049649e+02) (1.045143e+01 2.279300e-20 2.076386e-01)) ((-3.524825e+01 -3.066773e+02 2.002475e+00) (-1.038193e-02 1.036285e+01 5.225715e-01))
0.0422222     	((4.576189e+01 -5.143430e-17 8.006891e+02) (1.036747e+01 3.131856e-20 1.943628e-01)) ((-4.003446e+01 -3.508735e+02 2.288094e+00) (-9.718141e-03 1.028743e+01 5.183736e-01))
0.042963      	((4.483364e+01 -5.223735e-17 7.964273e+02) (1.027706e+01 3.410375e-20 1.815080e-01)) ((-3.982137e+01 -3.501243e+02 2.241682e+00) (-9.075401e-03 1.020535e+01 5.138530e-01))
0.0437037     	((4.472638e+01 -5.220872e-17 7.969689e+02) (1.017319e+01 2.804884e-20 1.683193e-01)) ((-3.984845e+01 -3.510420e+02 2.236319e+00) (-8.415963e-03 1.010969e+01 5.086595e-01))
0.0444444     	((3.754050e+01 -5.927755e-17 7.082082e+02) (1.007868e+01 2.870492e-20 1.549740e-01)) ((-3.541041e+01 -3.102170e+02 1.877025e+00) (-7.748701e-03 1.002394e+01 5.039339e-01))
0.0451852     	((4.385168e+01 -5.266085e-17 8.031012e+02) (9.999211e+00 2.302967e-20 1.362775e-01)) ((-4.015506e+01 -3.553220e+02 2.192584e+00) (-6.813876e-03 9.958142e+00 4.999606e-01))
0.0459259     	((4.346164e+01 -5.273724e-17 8.098953e+02) (9.934339e+00 1.105046e-20 1.107887e-01)) ((-4.049476e+01 -3.595234e+02 2.173082e+00) (-5.539436e-03 9.913759e+00 4.967169e-01))
0.0466667     	((3.869558e+01 -5.316273e-17 8.032957e+02) (9.880345e+00 2.016777e-20 1.281376e-01)) ((-4.016478e+01 -3.532142e+02 1.934779e+00) (-6.406879e-03 9.838138e+00 4.940172e-01))
0.0474074     	((3.496456e+01 -5.886432e-17 6.877435e+02) (9.819302e+00 2.336813e-20 1.268784e-01)) ((-3.438717e+01 -2.948413e+02 1.748228e+00) (-6.343922e-03 9.774752e+00 4.909651e-01))
0.0481481     	((4.273224e+01 -5.265045e-17 7.978307e+02) (9.743074e+00 2.227505e-20 1.226717e-01)) ((-3.989154e+01 -3.493937e+02 2.136612e+00) (-6.133584e-03 9.698052e+00 4.871537e-01))
0.0488889     	((4.193278e+01 -5.353595e-17 7.883829e+02) (9.686829e+00 1.904430e-20 1.160284e-01)) ((-3.941914e+01 -3.444626e+02 2.096639e+00) (-5.801419e-03 9.643880e+00 4.843415e-01))
0.0496296     	((4.099765e+01 -5.373310e-17 8.049393e+02) (9.642542e+00 1.801089e-20 1.069560e-01)) ((-4.024697e+01 -3.550986e+02 2.049883e+00) (-5.347802e-03 9.603908e+00 4.821271e-01))
0.0503704     	((2.670299e+01 -5.993550e-17 7.414294e+02) (9.599949e+00 1.445536e-20 1.035602e-01)) ((-3.707147e+01 -3.326135e+02 1.335150e+00) (-5.178009e-03 9.561489e+00 4.799974e-01))
0.0511111     	((3.502842e+01 -5.290154e-17 8.336180e+02) (9.556536e+00 1.003411e-20 1.028634e-01)) ((-4.168090e+01 -3.773691e+02 1.751421e+00) (-5.143168e-03 9.515254e+00 4.778268e-01))
0.0518519     	((3.658162e+01 -5.333107e-17 8.190173e+02) (9.502295e+00 4.576726e-21 9.761076e-02)) ((-4.095087e+01 -3.662568e+02 1.829081e+00) (-4.880538e-03 9.462270e+00 4.751147e-01))
0.0525926     	((3.673594e+01 -5.401594e-17 8.135577e+02) (9.437603e+00 -1.923367e-21 8.678434e-02)) ((-4.067788e+01 -3.619821e+02 1.836797e+00) (-4.339217e-03 9.403336e+00 4.718801e-01))
0.0533333     	((2.668631e+01 -3.565007e-17 7.080111e+02) (9.380990e+00 -1.227930e-21 8.023428e-02)) ((-3.540056e+01 -3.063409e+02 1.334315e+00) (-4.011714e-03 9.349856e+00 4.690495e-01))
0.0540741     	((3.676720e+01 -5.442038e-17 8.225185e+02) (9.334810e+00 -4.252821e-21 6.948793e-02)) ((-4.112593e+01 -3.661701e+02 1.838360e+00) (-3.474397e-03 9.310265e+00 4.667405e-01))
0.0548148     	((3.488358e+01 -5.233697e-17 8.101503e+02) (9.298247e+00 -6.672796e-21 5.943359e-02)) ((-4.050751e+01 -3.603307e+02 1.744179e+00) (-2.971680e-03 9.280164e+00 4.649123e-01))
0.0555556     	((3.181463e+01 -5.080178e-17 7.882920e+02) (9.277121e+00 -1.482978e-20 3.988065e-02)) ((-3.941460e+01 -3.488718e+02 1.590731e+00) (-1.994032e-03 9.272429e+00 4.638561e-01))
0.0562963     	((2.294885e+01 -4.772162e-17 7.142597e+02) (9.257885e+00 -5.301008e-21 3.944333e-02)) ((-3.571299e+01 -3.092231e+02 1.147443e+00) (-1.972166e-03 9.252364e+00 4.628943e-01))
0.057037      	((3.194265e+01 -5.353217e-17 8.248363e+02) (9.234775e+00 -2.004539e-21 2.888831e-02)) ((-4.124182e+01 -3.688825e+02 1.597133e+00) (-1.444416e-03 9.236054e+00 4.617387e-01))
0.0577778     	((3.150125e+01 -5.273231e-17 8.224153e+02) (9.210774e+00 -1.359204e-21 1.789894e-02)) ((-4.112076e+01 -3.664167e+02 1.575063e+00) (-8.949468e-04 9.219378e+00 4.605387e-01))
0.0585185     	((1.477500e+01 -4.652412e-17 6.679218e+02) (9.190946e+00 2.727584e-21 8.537084e-03)) ((-3.339609e+01 -2.807404e+02 7.387500e-01) (-4.268542e-04 9.206111e+00 4.595473e-01))
0.0592593     	((3.031790e+01 -5.210972e-17 8.262313e+02) (9.162819e+00 3.352064e-21 -3.627433e-03)) ((-4.131156e+01 -3.686360e+02 1.515895e+00) (1.813717e-04 9.186751e+00 4.581409e-01))
0.06          	((2.821835e+01 -5.108597e-17 8.090255e+02) (9.131445e+00 5.024519e-21 -1.277488e-02)) ((-4.045127e+01 -3.589630e+02 1.410918e+00) (6.387442e-04 9.161795e+00 4.565723e-01))
0.0607407     	((2.083942e+01 -4.905465e-17 7.444219e+02) (9.099862e+00 6.266459e-21 -2.287057e-02)) ((-3.722109e+01 -3.222340e+02 1.041971e+00) (1.143529e-03 9.137230e+00 4.549931e-01))
0.0614815     	((1.312178e+01 -4.441452e-17 6.972406e+02) (9.066129e+00 8.114137e-21 -2.718736e-02)) ((-3.486203e+01 -2.945787e+02 6.560888e-01) (1.359368e-03 9.105789e+00 4.533064e-01))
0.0622222     	((2.556915e+01 -4.545382e-17 8.009963e+02) (9.028534e+00 7.155589e-21 -3.088186e-02)) ((-4.004982e+01 -3.508641e+02 1.278458e+00) (1.544093e-03 9.069490e+00 4.514267e-01))
0.062963      	((2.384373e+01 -4.205457e-17 7.841610e+02) (8.992660e+00 4.736339e-21 -2.851089e-02)) ((-3.920805e+01 -3.399504e+02 1.192186e+00) (1.425544e-03 9.029644e+00 4.496330e-01))
0.0637037     	((9.755492e-02 5.215307e-17 5.951856e+02) (8.962692e+00 7.614174e-21 -2.708497e-02)) ((-2.975928e+01 -2.260408e+02 4.877746e-03) (1.354248e-03 8.996837e+00 4.481346e-01))
0.0644444     	((2.318445e+01 -3.747763e-17 7.998807e+02) (8.926001e+00 9.153610e-21 -2.684986e-02)) ((-3.999403e+01 -3.481664e+02 1.159222e+00) (1.342493e-03 8.958100e+00 4.463000e-01))
0.0651852     	((-2.628605e+01 8.550402e-17 9.374827e+02) (8.850878e+00 1.353877e-20 -2.336412e-02)) ((-4.687414e+01 -4.456781e+02 -1.314303e+00) (1.168206e-03 8.878769e+00 4.425439e-01))
0.0659259     	((-3.122028e+01 9.778006e-17 5.174367e+02) (8.808437e+00 2.005555e-20 -1.350482e-02)) ((-2.587184e+01 -1.803493e+02 -1.561014e+00) (6.752411e-04 8.827433e+00 4.404219e-01))
0.0666667     	((8.478885e+00 1.485879e-17 7.860190e+02) (8.772077e+00 1.845400e-20 -6.050740e-03)) ((-3.930095e+01 -3.389125e+02 4.239443e-01) (3.025370e-04 8.783799e+00 4.386038e-01))
0.0674074     	((-6.953661e-01 3.006799e-17 7.229979e+02) (8.738083e+00 1.213174e-20 3.279700e-02)) ((-3.614989e+01 -2.997057e+02 -3.476830e-02) (-1.639850e-03 8.715023e+00 4.369042e-01))
0.0681481     	((-4.091283e+01 6.115584e-17 4.060292e+02) (8.709696e+00 1.283102e-20 4.813239e-02)) ((-2.030146e+01 -1.001760e+02 -2.045641e+00) (-2.406620e-03 8.672778e+00 4.354848e-01))
0.0688889     	((-1.001939e+02 -1.174568e-16 7.393554e+02) (8.573916e+00 -3.624651e-20 8.359035e-02)) ((-3.696777e+01 -3.025828e+02 -5.009695e+00) (-4.179518e-03 8.505517e+00 4.286958e-01))
0.0695425     	((-8.156858e+01 1.964664e-16 3.803384e+02) (8.506377e+00 -3.923330e-20 5.769482e-02)) ((-1.901692e+01 -6.155001e+01 -4.078429e+00) (-2.884741e-03 8.459967e+00 4.253189e-01))
0.0701961     	((-2.018631e+03 2.192365e-15 -7.617000e+03) (8.271979e+00 1.566615e-20 5.898374e-02)) ((3.808500e+02 5.159151e+03 -1.009316e+02) (-2.949187e-03 8.233646e+00 4.135990e-01))
0.0708964     	((7.539021e+01 -4.607075e-17 5.985089e+02) (8.242331e+00 1.940891e-20 6.854382e-02)) ((-2.992545e+01 -1.621880e+02 3.769510e+00) (-3.427191e-03 8.204292e+00 4.121165e-01))
0.0715966     	((7.017698e+01 -4.167157e-17 6.447413e+02) (8.219190e+00 2.396516e-20 7.701508e-02)) ((-3.223707e+01 -1.899993e+02 3.508849e+00) (-3.850754e-03 8.180960e+00 4.109595e-01))
0.0722969     	((7.129000e+01 -4.166952e-17 6.456216e+02) (8.202444e+00 2.516843e-20 8.341866e-02)) ((-3.228108e+01 -1.901294e+02 3.564500e+00) (-4.170933e-03 8.164693e+00 4.101222e-01))
0.0729972     	((7.000694e+01 -4.175980e-17 6.365124e+02) (8.188374e+00 2.449091e-20 8.646508e-02)) ((-3.182562e+01 -1.898602e+02 3.500347e+00) (-4.323254e-03 8.151450e+00 4.094187e-01))
0.0736975     	((6.873217e+01 -4.158825e-17 6.286480e+02) (8.179163e+00 2.406176e-20 8.316418e-02)) ((-3.143240e+01 -1.897464e+02 3.436609e+00) (-4.158209e-03 8.144764e+00 4.089582e-01))
0.0743978     	((6.712852e+01 -4.199170e-17 6.354290e+02) (8.181495e+00 2.637409e-20 7.169048e-02)) ((-3.177145e+01 -1.986164e+02 3.356426e+00) (-3.584524e-03 8.152583e+00 4.090748e-01))
0.075098      	((6.291298e+01 -4.293121e-17 6.205140e+02) (8.183073e+00 3.036948e-20 6.160297e-02)) ((-3.102570e+01 -2.005635e+02 3.145649e+00) (-3.080149e-03 8.158027e+00 4.091537e-01))
0.0757983     	((5.142480e+01 -4.381702e-17 5.558318e+02) (8.169975e+00 3.206940e-20 5.480586e-02)) ((-2.779159e+01 -1.947684e+02 2.571240e+00) (-2.740293e-03 8.146396e+00 4.084987e-01))
0.0764986     	((5.631139e+01 -4.417840e-17 5.882565e+02) (8.158672e+00 2.853908e-20 3.836753e-02)) ((-2.941283e+01 -1.941202e+02 2.815570e+00) (-1.918376e-03 8.142160e+00 4.079336e-01))
0.0770822     	((5.277378e+01 -5.520621e-17 5.924028e+02) (8.148169e+00 2.429122e-20 3.002677e-02)) ((-2.962014e+01 -1.992250e+02 2.638689e+00) (-1.501338e-03 8.131709e+00 4.074084e-01))
0.0776657     	((4.961704e+01 -5.196199e-17 5.793337e+02) (8.136525e+00 1.986793e-20 2.651353e-02)) ((-2.896668e+01 -1.913220e+02 2.480852e+00) (-1.325676e-03 8.115410e+00 4.068263e-01))
0.0782493     	((3.300846e+01 -6.012890e-17 7.819865e+02) (8.119572e+00 1.791836e-20 1.696696e-02)) ((-3.909933e+01 -3.475572e+02 1.650423e+00) (-8.483478e-04 8.099435e+00 4.059786e-01))
0.0788329     	((3.881564e+01 -5.231521e-17 6.075005e+02) (8.112692e+00 1.870925e-20 6.057950e-03)) ((-3.037502e+01 -2.215758e+02 1.940782e+00) (-3.028975e-04 8.095263e+00 4.056346e-01))
0.0794164     	((3.317159e+01 -5.661665e-17 6.409883e+02) (8.110809e+00 1.541593e-20 -6.138614e-03)) ((-3.204941e+01 -2.502443e+02 1.658580e+00) (3.069307e-04 8.097906e+00 4.055404e-01))
0.08          	((-1.094097e+02 -1.483268e-16 2.513406e+03) (8.079813e+00 7.984189e-21 -1.803302e-02)) ((-1.256703e+02 -1.593650e+03 -5.470484e+00) (9.016512e-04 8.074951e+00 4.039906e-01))
0.0806452     	((1.797992e+01 4.190200e-17 1.846059e+02) (8.100451e+00 1.136567e-20 -3.855181e-02)) ((-9.230294e+00 5.136675e+01 8.989958e-01) (1.927590e-03 8.111230e+00 4.050226e-01))
0.0813126     	((-5.625874e+01 2.302383e-16 -4.704461e+02) (8.114303e+00 1.005686e-20 -3.866256e-02)) ((2.352231e+01 4.690813e+02 -2.812937e+00) (1.933128e-03 8.124072e+00 4.057151e-01))
0.08198       	((-2.962051e+01 1.390244e-16 -6.142579e+01) (8.107879e+00 2.281914e-20 -2.081148e-02)) ((3.071290e+00 2.056673e+02 -1.481026e+00) (1.040574e-03 8.101487e+00 4.053939e-01))
0.0826474     	((1.385557e+01 -3.953054e-17 7.253775e+02) (8.071446e+00 1.771030e-20 -1.745882e-02)) ((-3.626887e+01 -3.060302e+02 6.927783e-01) (8.729412e-04 8.060912e+00 4.035723e-01))
0.0833148     	((2.737167e+00 -4.208665e-17 9.109615e+02) (8.046806e+00 2.045601e-20 -1.071268e-02)) ((-4.554808e+01 -4.359838e+02 1.368583e-01) (5.356342e-04 8.030307e+00 4.023403e-01))
0.0839822     	((-8.876158e+01 -6.539662e-17 1.690101e+03) (8.006497e+00 2.514108e-20 1.419464e-03)) ((-8.450504e+01 -9.944445e+02 -4.438079e+00) (-7.097321e-05 7.980614e+00 4.003248e-01))
0.0846496     	((-8.304603e+01 1.171568e-16 2.839558e+02) (7.999707e+00 2.465969e-20 6.943202e-03)) ((-1.419779e+01 -2.227106e+01 -4.152302e+00) (-3.471601e-04 7.970675e+00 3.999854e-01))
0.085317      	((-3.194091e+00 -6.651238e-18 6.499521e+02) (7.991150e+00 2.316062e-20 1.161470e-02)) ((-3.249761e+01 -2.516489e+02 -1.597046e-01) (-5.807349e-04 7.959933e+00 3.995575e-01))
0.0859844     	((-1.909416e+01 5.004625e-17 6.165021e+02) (7.974777e+00 2.959883e-20 2.740204e-02)) ((-3.082511e+01 -2.271176e+02 -9.547081e-01) (-1.370102e-03 7.930985e+00 3.987389e-01))
0.0866518     	((-1.586759e+02 3.999902e-16 5.257902e+02) (7.888381e+00 1.885633e-20 5.002553e-02)) ((-2.628951e+01 -1.771026e+02 -7.933794e+00) (-2.501276e-03 7.826996e+00 3.944190e-01))
0.0873192     	((-2.615324e+02 2.176681e-16 -1.845862e+02) (7.836828e+00 2.851364e-20 7.390523e-02)) ((9.229309e+00 3.109972e+02 -1.307662e+01) (-3.695261e-03 7.757459e+00 3.918414e-01))
0.0879867     	((-3.696492e+02 1.890400e-16 -4.968816e+02) (7.778098e+00 3.094852e-20 7.911712e-02)) ((2.484408e+01 5.145050e+02 -1.848246e+01) (-3.955856e-03 7.700012e+00 3.889049e-01))
0.0886541     	((2.937940e+01 -3.208054e-17 6.270188e+02) (7.781786e+00 2.688066e-20 7.760866e-02)) ((-3.135094e+01 -2.269136e+02 1.468970e+00) (-3.880433e-03 7.708980e+00 3.890893e-01))
0.0893215     	((2.367746e+01 -2.785369e-17 6.013933e+02) (7.786651e+00 2.180227e-20 7.127604e-02)) ((-3.006966e+01 -2.195088e+02 1.183873e+00) (-3.563802e-03 7.722649e+00 3.893325e-01))
0.0899496     	((2.072187e+01 -2.618135e-17 5.979494e+02) (7.793374e+00 1.325664e-20 5.046108e-02)) ((-2.989747e+01 -2.207268e+02 1.036093e+00) (-2.523054e-03 7.751133e+00 3.896687e-01))
0.0905778     	((2.156346e+01 -2.721512e-17 5.937692e+02) (7.801797e+00 6.681486e-21 3.074280e-02)) ((-2.968846e+01 -2.186955e+02 1.078173e+00) (-1.537140e-03 7.779232e+00 3.900898e-01))
0.0912059     	((-1.401208e+01 7.380136e-17 5.679792e+02) (7.802444e+00 4.266768e-20 7.479470e-03)) ((-2.839896e+01 -2.025762e+02 -7.006042e-01) (-3.739735e-04 7.801143e+00 3.901222e-01))
0.0918341     	((-1.472957e+01 5.720232e-17 4.640162e+02) (7.816737e+00 6.393794e-20 -1.879944e-02)) ((-2.320081e+01 -1.314241e+02 -7.364783e-01) (9.399720e-04 7.838715e+00 3.908369e-01))
0.0924622     	((-7.734605e+01 5.769700e-17 2.936185e+02) (7.815597e+00 2.220783e-20 -2.243936e-02)) ((-1.468093e+01 -1.725478e+01 -3.867302e+00) (1.121968e-03 7.838338e+00 3.907799e-01))
0.0930904     	((-1.458639e+02 6.571074e-17 7.909825e+01) (7.773285e+00 -6.096916e-21 7.664097e-03)) ((-3.954912e+00 1.207658e+02 -7.293196e+00) (-3.832049e-04 7.764424e+00 3.886643e-01))
0.0937185     	((-1.848214e+01 8.585678e-18 4.502242e+02) (7.738935e+00 -1.818105e-21 1.134710e-02)) ((-2.251121e+01 -1.221792e+02 -9.241072e-01) (-5.673551e-04 7.722305e+00 3.869468e-01))
0.0943467     	((-1.882914e+01 1.034739e-17 4.487669e+02) (7.705661e+00 8.518042e-22 1.042704e-02)) ((-2.243834e+01 -1.209482e+02 -9.414569e-01) (-5.213518e-04 7.685048e+00 3.852830e-01))
0.0949748     	((-1.922721e+01 1.127089e-17 4.368908e+02) (7.678098e+00 2.567838e-21 6.084248e-03)) ((-2.184454e+01 -1.150134e+02 -9.613604e-01) (-3.042124e-04 7.655949e+00 3.839049e-01))
0.095603      	((-2.000642e+01 1.189981e-17 4.237328e+02) (7.664638e+00 5.196654e-21 -2.343402e-03)) ((-2.118664e+01 -1.087356e+02 -1.000321e+00) (1.171701e-04 7.643445e+00 3.832319e-01))
0.0962311     	((-2.004529e+01 1.203973e-17 4.196350e+02) (7.675758e+00 6.894704e-21 -1.576593e-02)) ((-2.098175e+01 -1.066960e+02 -1.002265e+00) (7.882967e-04 7.658839e+00 3.837879e-01))
0.0968593     	((-2.006316e+01 1.223158e-17 4.155768e+02) (7.713541e+00 7.924531e-21 -3.468262e-02)) ((-2.077884e+01 -1.042607e+02 -1.003158e+00) (1.734131e-03 7.704503e+00 3.856770e-01))
0.0974874     	((-1.983038e+01 1.228957e-17 4.146848e+02) (7.777731e+00 8.112843e-21 -5.490564e-02)) ((-2.073424e+01 -1.032127e+02 -9.915190e-01) (2.745282e-03 7.778741e+00 3.888866e-01))
0.0981156     	((-1.911432e+01 1.210378e-17 4.202634e+02) (7.860429e+00 8.536784e-21 -7.428789e-02)) ((-2.101317e+01 -1.051470e+02 -9.557160e-01) (3.714394e-03 7.872465e+00 3.930215e-01))
0.0987437     	((-1.827647e+01 1.183487e-17 4.277947e+02) (7.947049e+00 8.572474e-21 -9.064524e-02)) ((-2.138973e+01 -1.079713e+02 -9.138236e-01) (4.532262e-03 7.969516e+00 3.973524e-01))
0.0993719     	((-1.800885e+01 1.180093e-17 4.286000e+02) (8.029345e+00 8.693053e-21 -1.035850e-01)) ((-2.143000e+01 -1.078591e+02 -9.004425e-01) (5.179251e-03 8.060925e+00 4.014672e-01))
0.1           	((-1.795990e+01 1.188538e-17 4.276268e+02) (8.107624e+00 9.738346e-21 -1.122314e-01)) ((-2.138134e+01 -1.069182e+02 -8.979949e-01) (5.611571e-03 8.146829e+00 4.053812e-01))