# Forces      
# CofR        : (0.000000e+00 0.000000e+00 -1.000000e+00)
# Time        forces(pressure viscous)	moments(pressure viscous)
0             	((-1.421085e-14 1.504542e-17 0.000000e+00) (4.605688e+00 -2.192305e-20 6.915114e-01)) ((-1.421085e-14 -5.684342e-14 3.552714e-15) (-3.457557e-02 4.264612e+00 2.302844e-01))
1.19976e-05   	((9.295298e+04 -3.710451e-14 6.103545e+05) (4.637708e+00 -1.784186e-20 6.261127e-01)) ((-3.051773e+04 -1.121097e+05 4.647649e+03) (-3.130564e-02 4.318850e+00 2.318854e-01))
2.63878e-05   	((1.363149e+04 -7.471510e-15 1.029230e+05) (4.642479e+00 -2.150065e-20 6.043560e-01)) ((-5.146151e+03 -2.469766e+04 6.815745e+02) (-3.021780e-02 4.329844e+00 2.321240e-01))
4.36511e-05   	((7.905739e+03 -4.015238e-15 5.624802e+04) (4.651944e+00 -1.698137e-20 5.971725e-01)) ((-2.812401e+03 -1.308372e+04 3.952869e+02) (-2.985863e-02 4.340708e+00 2.325972e-01))
6.43527e-05   	((4.928408e+03 -2.798169e-15 3.936628e+04) (4.665398e+00 -1.535196e-20 5.923936e-01)) ((-1.968314e+03 -9.756309e+03 2.464204e+02) (-2.961968e-02 4.355347e+00 2.332699e-01))
8.91792e-05   	((3.882587e+03 -2.121079e-15 2.880535e+04) (4.681553e+00 -1.425818e-20 5.893767e-01)) ((-1.440268e+03 -6.963987e+03 1.941293e+02) (-2.946883e-02 4.372187e+00 2.340777e-01))
0.000118941   	((2.573555e+03 -1.484883e-15 2.060535e+04) (4.699555e+00 -1.351286e-20 5.874801e-01)) ((-1.030268e+03 -5.213298e+03 1.286778e+02) (-2.937400e-02 4.390591e+00 2.349778e-01))
0.000154634   	((2.404164e+03 -1.255554e-15 1.639462e+04) (4.722556e+00 -1.264621e-20 5.863140e-01)) ((-8.197312e+02 -3.865836e+03 1.202082e+02) (-2.931570e-02 4.413724e+00 2.361278e-01))
0.000197405   	((1.587507e+03 -8.940998e-16 1.202605e+04) (4.747676e+00 -1.153931e-20 5.861429e-01)) ((-6.013025e+02 -2.986835e+03 7.937533e+01) (-2.930715e-02 4.438696e+00 2.373838e-01))
0.000248707   	((1.384572e+03 -1.353648e-15 1.257495e+04) (4.779347e+00 -1.387608e-20 5.826685e-01)) ((-6.287475e+02 -4.310081e+03 6.922862e+01) (-2.913343e-02 4.473465e+00 2.389673e-01))
0.000310237   	((1.281090e+03 -7.219385e-16 8.022628e+03) (4.815812e+00 -1.421234e-20 5.833714e-01)) ((-4.011314e+02 -2.124783e+03 6.405451e+01) (-2.916857e-02 4.510245e+00 2.407906e-01))
0.000383982   	((1.035294e+03 -6.262618e-16 6.914752e+03) (4.860208e+00 -1.165288e-20 5.865386e-01)) ((-3.457376e+02 -1.811533e+03 5.176472e+01) (-2.932693e-02 4.552214e+00 2.430104e-01))
0.000472342   	((1.038514e+03 -5.040865e-16 5.592869e+03) (4.915968e+00 -1.081894e-20 5.904126e-01)) ((-2.796435e+02 -1.248835e+03 5.192568e+01) (-2.952063e-02 4.604334e+00 2.457984e-01))
0.000577897   	((8.960700e+02 -3.823381e-16 4.290640e+03) (4.983675e+00 -9.406451e-21 5.943691e-01)) ((-2.145320e+02 -9.072459e+02 4.480350e+01) (-2.971846e-02 4.669826e+00 2.491838e-01))
0.000704014   	((8.287675e+02 -5.814394e-16 5.298501e+03) (5.070942e+00 -8.460326e-21 5.938663e-01)) ((-2.649251e+02 -1.740344e+03 4.143838e+01) (-2.969331e-02 4.758430e+00 2.535471e-01))
0.000854764   	((8.337852e+02 -4.947885e-16 4.596493e+03) (5.184221e+00 -6.167307e-21 5.992409e-01)) ((-2.298246e+02 -1.323440e+03 4.168926e+01) (-2.996204e-02 4.867236e+00 2.592111e-01))
0.00103538    	((2.526512e+03 -7.133931e-16 4.590836e+03) (5.369779e+00 -9.056383e-21 5.962016e-01)) ((-2.295418e+02 -1.371525e+02 1.263256e+02) (-2.981008e-02 5.046430e+00 2.684890e-01))
0.00125089    	((4.198884e+02 -2.294176e-16 2.785994e+03) (5.560203e+00 -7.200237e-21 6.099345e-01)) ((-1.392997e+02 -6.987768e+02 2.099442e+01) (-3.049673e-02 5.225416e+00 2.780102e-01))
0.00150772    	((2.609555e+02 -3.580256e-16 3.315515e+03) (5.798629e+00 -1.757662e-21 6.234408e-01)) ((-1.657758e+02 -1.511531e+03 1.304778e+01) (-3.117204e-02 5.459489e+00 2.899314e-01))
0.00181593    	((3.718345e+02 -2.885845e-17 2.733535e+03) (6.071210e+00 -1.163622e-20 6.324794e-01)) ((-1.366768e+02 -1.411558e+03 1.859172e+01) (-3.162397e-02 5.738041e+00 3.035605e-01))
0.00217961    	((2.367287e+02 -1.226203e-16 1.854267e+03) (6.389357e+00 -1.192947e-20 6.494109e-01)) ((-9.271337e+01 -5.833996e+02 1.183644e+01) (-3.247054e-02 6.055026e+00 3.194679e-01))
0.00261425    	((2.506211e+02 -1.405109e-16 1.375607e+03) (6.743318e+00 -1.249080e-20 6.781917e-01)) ((-6.878034e+01 -4.103008e+02 1.253106e+01) (-3.390958e-02 6.404781e+00 3.371659e-01))
0.0031256     	((2.004326e+02 -1.168178e-16 1.313545e+03) (7.126073e+00 -1.181300e-20 7.056341e-01)) ((-6.567726e+01 -4.155161e+02 1.002163e+01) (-3.528171e-02 6.783692e+00 3.563036e-01))
0.00372826    	((1.365840e+02 -1.260673e-16 1.660054e+03) (7.535254e+00 -1.024456e-20 7.333096e-01)) ((-8.300269e+01 -6.494935e+02 6.829202e+00) (-3.666548e-02 7.189284e+00 3.767627e-01))
0.00443572    	((8.705745e+01 -1.965698e-16 2.438504e+03) (7.955408e+00 -9.177606e-21 7.680311e-01)) ((-1.219252e+02 -1.268909e+03 4.352872e+00) (-3.840155e-02 7.604995e+00 3.977704e-01))
0.0052549     	((9.133298e+01 -6.339907e-17 1.191575e+03) (8.364998e+00 -5.877112e-21 7.910104e-01)) ((-5.957877e+01 -4.438729e+02 4.566649e+00) (-3.955052e-02 8.013895e+00 4.182499e-01))
0.00617646    	((9.131658e+01 -5.868143e-17 9.124399e+02) (8.773672e+00 -4.519734e-21 8.196089e-01)) ((-4.562199e+01 -2.873883e+02 4.565829e+00) (-4.098045e-02 8.420857e+00 4.386836e-01))
0.00686764    	((9.491774e+01 -6.378977e-17 8.518609e+02) (9.053633e+00 -5.633041e-21 8.265537e-01)) ((-4.259304e+01 -2.749481e+02 4.745887e+00) (-4.132769e-02 8.703397e+00 4.526816e-01))
0.00755882    	((8.417842e+01 -7.857056e-17 9.461419e+02) (9.299917e+00 -6.834837e-21 8.373684e-01)) ((-4.730710e+01 -3.724141e+02 4.208921e+00) (-4.186842e-02 8.950402e+00 4.649958e-01))
0.00825       	((7.365367e+01 -7.412690e-17 1.060174e+03) (9.515693e+00 -7.530296e-21 8.442231e-01)) ((-5.300872e+01 -4.011279e+02 3.682683e+00) (-4.221115e-02 9.167884e+00 4.757847e-01))
0.00894117    	((6.132805e+01 -8.359978e-17 1.209971e+03) (9.698219e+00 -7.360164e-21 8.503436e-01)) ((-6.049856e+01 -5.167949e+02 3.066403e+00) (-4.251718e-02 9.351547e+00 4.849110e-01))
0.00963235    	((7.086118e+01 -5.847110e-17 9.342123e+02) (9.849965e+00 -6.319669e-21 8.625327e-01)) ((-4.671061e+01 -3.561533e+02 3.543059e+00) (-4.312664e-02 9.500651e+00 4.924982e-01))
0.0103235     	((7.486700e+01 -6.005649e-17 8.346575e+02) (9.992461e+00 -6.992042e-21 8.559439e-01)) ((-4.173287e+01 -3.113659e+02 3.743350e+00) (-4.279719e-02 9.646573e+00 4.996230e-01))
0.0110147     	((7.099567e+01 -5.974857e-17 8.787226e+02) (1.011376e+01 -7.670412e-21 8.510238e-01)) ((-4.393613e+01 -3.117277e+02 3.549784e+00) (-4.255119e-02 9.770415e+00 5.056881e-01))
0.0117059     	((7.109411e+01 -5.850345e-17 8.127917e+02) (1.020726e+01 -8.097856e-21 8.495486e-01)) ((-4.063959e+01 -2.828906e+02 3.554706e+00) (-4.247743e-02 9.863347e+00 5.103631e-01))
0.0123971     	((6.645861e+01 -5.826685e-17 8.718730e+02) (1.030081e+01 -8.390895e-21 8.349491e-01)) ((-4.359365e+01 -3.219418e+02 3.322931e+00) (-4.174745e-02 9.960761e+00 5.150403e-01))
0.0130882     	((7.018557e+01 -5.519316e-17 7.579436e+02) (1.035761e+01 -6.923743e-21 8.206646e-01)) ((-3.789718e+01 -2.768177e+02 3.509279e+00) (-4.103323e-02 1.002067e+01 5.178806e-01))
0.0137794     	((6.616054e+01 -5.744321e-17 8.373065e+02) (1.039262e+01 -5.890006e-21 7.984311e-01)) ((-4.186532e+01 -3.051428e+02 3.308027e+00) (-3.992156e-02 1.006017e+01 5.196308e-01))
0.0144706     	((6.386983e+01 -5.690985e-17 8.188465e+02) (1.041861e+01 -8.836271e-21 7.783843e-01)) ((-4.094232e+01 -3.055525e+02 3.193491e+00) (-3.891922e-02 1.008966e+01 5.209307e-01))
0.0151618     	((6.636354e+01 -5.405359e-17 7.436119e+02) (1.041946e+01 -8.664324e-21 7.578302e-01)) ((-3.718060e+01 -2.735949e+02 3.318177e+00) (-3.789151e-02 1.009228e+01 5.209732e-01))
0.0158529     	((6.588538e+01 -5.505850e-17 7.871204e+02) (1.040808e+01 -5.712444e-21 7.347620e-01)) ((-3.935602e+01 -2.807712e+02 3.294269e+00) (-3.673810e-02 1.008176e+01 5.204038e-01))
0.0165441     	((5.870017e+01 -5.632586e-17 8.740543e+02) (1.042283e+01 1.018090e-22 7.016640e-01)) ((-4.370272e+01 -3.472038e+02 2.935008e+00) (-3.508320e-02 1.010532e+01 5.211416e-01))
0.0172353     	((6.340383e+01 -5.500741e-17 7.983805e+02) (1.041976e+01 4.739217e-21 6.681938e-01)) ((-3.991903e+01 -2.937472e+02 3.170192e+00) (-3.340969e-02 1.011011e+01 5.209878e-01))
0.0177882     	((6.196522e+01 -5.445707e-17 7.184632e+02) (1.041552e+01 6.712226e-21 6.505944e-01)) ((-3.592316e+01 -2.745037e+02 3.098261e+00) (-3.252972e-02 1.010766e+01 5.207759e-01))
0.0183412     	((6.219968e+01 -5.453011e-17 8.015716e+02) (1.041188e+01 6.393598e-21 6.294547e-01)) ((-4.007858e+01 -2.996075e+02 3.109984e+00) (-3.147273e-02 1.010825e+01 5.205939e-01))
0.0188941     	((6.375444e+01 -5.410059e-17 7.730762e+02) (1.040512e+01 4.575651e-21 6.116149e-01)) ((-3.865381e+01 -2.793732e+02 3.187722e+00) (-3.058074e-02 1.010368e+01 5.202559e-01))
0.0194471     	((5.671804e+01 -5.581349e-17 8.633361e+02) (1.041764e+01 3.786186e-22 5.893336e-01)) ((-4.316680e+01 -3.482857e+02 2.835902e+00) (-2.946668e-02 1.012422e+01 5.208821e-01))
0.02          	((6.213230e+01 -5.381665e-17 7.702712e+02) (1.041706e+01 -2.252962e-21 5.663164e-01)) ((-3.851356e+01 -2.854920e+02 3.106615e+00) (-2.831582e-02 1.013101e+01 5.208529e-01))
0.0205882     	((5.880571e+01 -5.432577e-17 7.318042e+02) (1.041394e+01 -2.074071e-21 5.530405e-01)) ((-3.659021e+01 -2.828345e+02 2.940286e+00) (-2.765203e-02 1.013116e+01 5.206972e-01))
0.0211765     	((6.217721e+01 -5.416729e-17 7.639949e+02) (1.040081e+01 -2.042969e-21 5.392745e-01)) ((-3.819975e+01 -2.804502e+02 3.108860e+00) (-2.696373e-02 1.011976e+01 5.200407e-01))
0.0217647     	((5.874277e+01 -5.499414e-17 8.037351e+02) (1.039971e+01 -3.762980e-21 5.211935e-01)) ((-4.018676e+01 -3.123806e+02 2.937139e+00) (-2.605967e-02 1.012531e+01 5.199854e-01))
0.0223725     	((6.160277e+01 -5.395674e-17 7.640598e+02) (1.038133e+01 -5.703739e-21 5.088791e-01)) ((-3.820299e+01 -2.816210e+02 3.080138e+00) (-2.544396e-02 1.010834e+01 5.190664e-01))
0.0229804     	((5.666989e+01 -5.509901e-17 8.269264e+02) (1.038182e+01 -8.382570e-21 4.903105e-01)) ((-4.134632e+01 -3.288654e+02 2.833495e+00) (-2.451553e-02 1.011667e+01 5.190910e-01))
0.0235882     	((6.011504e+01 -5.419455e-17 7.703334e+02) (1.036382e+01 -7.453861e-21 4.738591e-01)) ((-3.851667e+01 -2.904355e+02 3.005752e+00) (-2.369296e-02 1.010334e+01 5.181908e-01))
0.0241961     	((5.756563e+01 -5.410419e-17 7.237902e+02) (1.034936e+01 -8.716298e-21 4.661464e-01)) ((-3.618951e+01 -2.781361e+02 2.878282e+00) (-2.330732e-02 1.009003e+01 5.174678e-01))
0.0248039     	((5.736738e+01 -5.475157e-17 8.034810e+02) (1.033853e+01 -8.584683e-21 4.522182e-01)) ((-4.017405e+01 -3.149373e+02 2.868369e+00) (-2.261091e-02 1.008418e+01 5.169264e-01))
0.0254118     	((5.932641e+01 -5.372367e-17 7.697991e+02) (1.031303e+01 -7.670477e-21 4.421743e-01)) ((-3.848995e+01 -2.912631e+02 2.966321e+00) (-2.210871e-02 1.006035e+01 5.156514e-01))
0.0260196     	((5.614737e+01 -5.497354e-17 8.140764e+02) (1.030472e+01 -6.660246e-21 4.285929e-01)) ((-4.070382e+01 -3.239447e+02 2.807369e+00) (-2.142964e-02 1.005767e+01 5.152359e-01))
0.0266275     	((5.875159e+01 -5.377966e-17 7.739323e+02) (1.027543e+01 -5.249041e-21 4.173259e-01)) ((-3.869662e+01 -2.944451e+02 2.937579e+00) (-2.086630e-02 1.003071e+01 5.137717e-01))
0.0272353     	((5.495274e+01 -5.441616e-17 7.571547e+02) (1.026171e+01 -4.069734e-21 4.058103e-01)) ((-3.785773e+01 -2.995009e+02 2.747637e+00) (-2.029052e-02 1.002101e+01 5.130857e-01))
0.0278431     	((5.648350e+01 -5.424100e-17 7.635084e+02) (1.023269e+01 -3.939507e-21 3.989988e-01)) ((-3.817542e+01 -2.973505e+02 2.824175e+00) (-1.994994e-02 9.992767e+00 5.116347e-01))
0.028451      	((5.670871e+01 -5.410026e-17 7.932128e+02) (1.020738e+01 -3.757297e-21 3.897328e-01)) ((-3.966064e+01 -3.102173e+02 2.835435e+00) (-1.948664e-02 9.969715e+00 5.103689e-01))
0.0290588     	((5.619015e+01 -5.448221e-17 7.943981e+02) (1.017863e+01 -3.578468e-21 3.809460e-01)) ((-3.971991e+01 -3.125265e+02 2.809508e+00) (-1.904730e-02 9.942821e+00 5.089313e-01))
0.0296667     	((5.628661e+01 -5.407172e-17 7.946111e+02) (1.014860e+01 -3.086594e-21 3.727528e-01)) ((-3.973056e+01 -3.117979e+02 2.814331e+00) (-1.863764e-02 9.914488e+00 5.074298e-01))
0.0302745     	((5.568189e+01 -5.439616e-17 7.955186e+02) (1.011931e+01 -1.774739e-21 3.598865e-01)) ((-3.977593e+01 -3.143225e+02 2.784095e+00) (-1.799432e-02 9.889285e+00 5.059657e-01))
0.0308824     	((5.257404e+01 -5.435670e-17 7.331678e+02) (1.008815e+01 -6.180939e-22 3.570568e-01)) ((-3.665839e+01 -2.913393e+02 2.628702e+00) (-1.785284e-02 9.857260e+00 5.044075e-01))
0.0314902     	((5.528962e+01 -5.416908e-17 7.969505e+02) (1.005426e+01 4.675938e-22 3.492417e-01)) ((-3.984753e+01 -3.153633e+02 2.764481e+00) (-1.746208e-02 9.825151e+00 5.027129e-01))
0.032098      	((5.463366e+01 -5.486580e-17 8.053605e+02) (1.001791e+01 1.229664e-21 3.414153e-01)) ((-4.026803e+01 -3.220726e+02 2.731683e+00) (-1.707076e-02 9.791100e+00 5.008956e-01))
0.0327059     	((5.458543e+01 -5.442068e-17 8.021552e+02) (9.980705e+00 2.859917e-21 3.329226e-01)) ((-4.010776e+01 -3.201103e+02 2.729272e+00) (-1.664613e-02 9.756864e+00 4.990353e-01))
0.0333137     	((5.418947e+01 -5.476587e-17 8.093064e+02) (9.945060e+00 3.378526e-21 3.224775e-01)) ((-4.046532e+01 -3.245039e+02 2.709473e+00) (-1.612387e-02 9.725283e+00 4.972530e-01))
0.0339216     	((5.108351e+01 -5.470586e-17 7.535445e+02) (9.911280e+00 2.125105e-21 3.133486e-01)) ((-3.767723e+01 -3.028016e+02 2.554175e+00) (-1.566743e-02 9.694984e+00 4.955640e-01))
0.0345294     	((5.261585e+01 -5.503169e-17 7.924645e+02) (9.874237e+00 1.287939e-21 3.067267e-01)) ((-3.962323e+01 -3.196019e+02 2.630793e+00) (-1.533634e-02 9.660171e+00 4.937118e-01))
0.0351373     	((5.312399e+01 -5.517431e-17 8.125621e+02) (9.833901e+00 9.228871e-22 2.992889e-01)) ((-4.062810e+01 -3.289799e+02 2.656199e+00) (-1.496445e-02 9.622305e+00 4.916950e-01))
0.0357451     	((5.359269e+01 -5.450138e-17 8.131254e+02) (9.791824e+00 7.363626e-22 2.920464e-01)) ((-4.065627e+01 -3.272929e+02 2.679634e+00) (-1.460232e-02 9.582506e+00 4.895912e-01))
0.0363529     	((5.266491e+01 -5.478301e-17 8.179351e+02) (9.748593e+00 2.775573e-21 2.844796e-01)) ((-4.089675e+01 -3.320650e+02 2.633246e+00) (-1.422398e-02 9.541716e+00 4.874296e-01))
0.0369608     	((5.192447e+01 -5.439474e-17 8.013843e+02) (9.707969e+00 1.336194e-21 2.717503e-01)) ((-4.006921e+01 -3.247382e+02 2.596224e+00) (-1.358752e-02 9.506704e+00 4.853985e-01))
0.0375686     	((4.862126e+01 -5.456183e-17 7.559542e+02) (9.663940e+00 1.056884e-21 2.697092e-01)) ((-3.779771e+01 -3.075204e+02 2.431063e+00) (-1.348546e-02 9.462651e+00 4.831970e-01))
0.0381765     	((5.206628e+01 -5.470354e-17 8.214210e+02) (9.618350e+00 3.436016e-21 2.621696e-01)) ((-4.107105e+01 -3.352876e+02 2.603314e+00) (-1.310848e-02 9.420114e+00 4.809175e-01))
0.0387843     	((5.202391e+01 -5.456598e-17 8.238301e+02) (9.575894e+00 5.215005e-21 2.542431e-01)) ((-4.119150e+01 -3.359613e+02 2.601195e+00) (-1.271215e-02 9.381156e+00 4.787947e-01))
0.0393922     	((5.159401e+01 -5.482550e-17 8.300854e+02) (9.539054e+00 6.784391e-21 2.457545e-01)) ((-4.150427e+01 -3.401936e+02 2.579701e+00) (-1.228772e-02 9.348459e+00 4.769527e-01))
0.04          	((5.075072e+01 -5.492153e-17 8.235038e+02) (9.508493e+00 1.084361e-20 2.315645e-01)) ((-4.117519e+01 -3.387565e+02 2.537536e+00) (-1.157822e-02 9.325671e+00 4.754246e-01))
0.040625      	((4.605250e+01 -5.473690e-17 7.503701e+02) (9.476876e+00 8.673271e-21 2.289309e-01)) ((-3.751851e+01 -3.070859e+02 2.302625e+00) (-1.144655e-02 9.295224e+00 4.738438e-01))
0.04125       	((5.104470e+01 -5.491517e-17 8.388705e+02) (9.441899e+00 9.688006e-21 2.207931e-01)) ((-4.194352e+01 -3.463133e+02 2.552235e+00) (-1.103966e-02 9.264447e+00 4.720950e-01))
0.041875      	((5.094750e+01 -5.471406e-17 8.391127e+02) (9.406174e+00 1.118036e-20 2.119643e-01)) ((-4.195563e+01 -3.460197e+02 2.547375e+00) (-1.059822e-02 9.233343e+00 4.703087e-01))
0.0425        	((5.036715e+01 -5.458729e-17 8.333604e+02) (9.368647e+00 1.286132e-20 2.049126e-01)) ((-4.166802e+01 -3.437312e+02 2.518357e+00) (-1.024563e-02 9.199411e+00 4.684323e-01))
0.043125      	((4.990355e+01 -5.504516e-17 8.308070e+02) (9.333332e+00 1.550004e-20 1.909024e-01)) ((-4.154035e+01 -3.436026e+02 2.495177e+00) (-9.545122e-03 9.172068e+00 4.666666e-01))
0.04375       	((4.437256e+01 -7.502814e-17 7.577180e+02) (9.292942e+00 1.441267e-20 1.902784e-01)) ((-3.788590e+01 -3.114008e+02 2.218628e+00) (-9.513920e-03 9.131604e+00 4.646471e-01))
0.044375      	((4.973501e+01 -5.562675e-17 8.413221e+02) (9.247470e+00 1.601653e-20 1.832893e-01)) ((-4.206611e+01 -3.495172e+02 2.486751e+00) (-9.164466e-03 9.089672e+00 4.623735e-01))
0.045         	((4.974953e+01 -5.527339e-17 8.495437e+02) (9.200297e+00 1.703832e-20 1.762593e-01)) ((-4.247718e+01 -3.535938e+02 2.487476e+00) (-8.812967e-03 9.046059e+00 4.600148e-01))
0.045625      	((4.926120e+01 -5.582739e-17 8.479479e+02) (9.153571e+00 1.520889e-20 1.695918e-01)) ((-4.239739e+01 -3.535962e+02 2.463060e+00) (-8.479591e-03 9.002663e+00 4.576785e-01))
0.04625       	((4.799109e+01 -5.782577e-17 8.345398e+02) (9.112559e+00 1.486377e-20 1.557693e-01)) ((-4.172699e+01 -3.482533e+02 2.399555e+00) (-7.788463e-03 8.969706e+00 4.556280e-01))
0.046875      	((4.274813e+01 -6.516814e-17 7.714160e+02) (9.073299e+00 4.162772e-21 1.549281e-01)) ((-3.857080e+01 -3.193167e+02 2.137407e+00) (-7.746405e-03 8.930848e+00 4.536649e-01))
0.0475        	((4.871709e+01 -5.574754e-17 8.566712e+02) (9.035801e+00 -5.346543e-21 1.472841e-01)) ((-4.283356e+01 -3.597069e+02 2.435855e+00) (-7.364207e-03 8.897988e+00 4.517900e-01))
0.048125      	((4.860507e+01 -5.574089e-17 8.622195e+02) (9.001067e+00 -1.405780e-20 1.390753e-01)) ((-4.311097e+01 -3.626196e+02 2.430253e+00) (-6.953765e-03 8.868300e+00 4.500533e-01))
0.04875       	((4.758481e+01 -5.711879e-17 8.553323e+02) (8.966299e+00 -2.129435e-20 1.319905e-01)) ((-4.276661e+01 -3.599561e+02 2.379240e+00) (-6.599524e-03 8.837895e+00 4.483150e-01))
0.049375      	((4.198682e+01 -6.263172e-17 7.909683e+02) (8.932812e+00 -2.702232e-20 1.218389e-01)) ((-3.954842e+01 -3.296491e+02 2.099341e+00) (-6.091944e-03 8.810925e+00 4.466406e-01))
0.05          	((4.417759e+01 -5.989880e-17 8.244122e+02) (8.892711e+00 -2.950114e-20 1.183391e-01)) ((-4.122061e+01 -3.465399e+02 2.208880e+00) (-5.916956e-03 8.772958e+00 4.446355e-01))
0.050625      	((4.693342e+01 -5.696202e-17 8.641779e+02) (8.847078e+00 -3.204787e-20 1.125673e-01)) ((-4.320890e+01 -3.666218e+02 2.346671e+00) (-5.628365e-03 8.730745e+00 4.423539e-01))
0.05125       	((4.680226e+01 -5.711177e-17 8.692836e+02) (8.800188e+00 -3.120958e-20 1.066940e-01)) ((-4.346418e+01 -3.696094e+02 2.340113e+00) (-5.334702e-03 8.687325e+00 4.400094e-01))
0.051875      	((4.644252e+01 -5.766479e-17 8.722774e+02) (8.755853e+00 -2.987384e-20 1.002928e-01)) ((-4.361387e+01 -3.714701e+02 2.322126e+00) (-5.014638e-03 8.647026e+00 4.377927e-01))
0.0525        	((3.652044e+01 -6.581175e-17 7.636729e+02) (8.719044e+00 -2.752142e-20 9.334684e-02)) ((-3.818365e+01 -3.175941e+02 1.826022e+00) (-4.667342e-03 8.615327e+00 4.359522e-01))
0.053125      	((4.583387e+01 -5.815540e-17 8.804519e+02) (8.683757e+00 -2.826553e-20 8.675723e-02)) ((-4.402260e+01 -3.766344e+02 2.291694e+00) (-4.337861e-03 8.584368e+00 4.341878e-01))
0.05375       	((4.485871e+01 -5.852363e-17 8.748112e+02) (8.657214e+00 -2.379391e-20 9.145135e-02)) ((-4.374056e+01 -3.736211e+02 2.242936e+00) (-4.572568e-03 8.551441e+00 4.328607e-01))
0.0543182     	((4.337562e+01 -5.900316e-17 8.753970e+02) (8.628878e+00 -2.371035e-20 9.146044e-02)) ((-4.376985e+01 -3.746132e+02 2.168781e+00) (-4.573022e-03 8.521628e+00 4.314439e-01))
0.0548864     	((4.414090e+01 -5.901549e-17 8.749763e+02) (8.599198e+00 -2.388389e-20 8.792900e-02)) ((-4.374881e+01 -3.746119e+02 2.207045e+00) (-4.396450e-03 8.493329e+00 4.299599e-01))
0.0554545     	((3.133549e+01 -6.641849e-17 7.530819e+02) (8.568986e+00 -2.346184e-20 8.638168e-02)) ((-3.765410e+01 -3.113812e+02 1.566775e+00) (-4.319084e-03 8.463596e+00 4.284493e-01))
0.0560227     	((4.415113e+01 -5.877697e-17 8.822774e+02) (8.536474e+00 -2.334910e-20 8.367200e-02)) ((-4.411387e+01 -3.778688e+02 2.207557e+00) (-4.183600e-03 8.431897e+00 4.268237e-01))
0.0565909     	((4.331095e+01 -5.714130e-17 8.802995e+02) (8.510356e+00 -2.295859e-20 8.623424e-02)) ((-4.401498e+01 -3.766154e+02 2.165548e+00) (-4.311712e-03 8.402009e+00 4.255178e-01))
0.0571591     	((4.284724e+01 -5.638760e-17 8.835089e+02) (8.493271e+00 -2.688104e-20 9.038844e-02)) ((-4.417544e+01 -3.790003e+02 2.142362e+00) (-4.519422e-03 8.379495e+00 4.246635e-01))
0.0577273     	((4.176171e+01 -5.755606e-17 8.852453e+02) (8.477864e+00 -1.957021e-20 9.108346e-02)) ((-4.426227e+01 -3.811107e+02 2.088086e+00) (-4.554173e-03 8.362036e+00 4.238932e-01))
0.0582955     	((2.771925e+01 -3.381652e-17 7.495563e+02) (8.466688e+00 -1.452949e-20 8.924337e-02)) ((-3.747781e+01 -3.088630e+02 1.385963e+00) (-4.462169e-03 8.351299e+00 4.233344e-01))
0.0588636     	((4.097159e+01 -5.644561e-17 8.760547e+02) (8.455389e+00 -1.317115e-20 8.773022e-02)) ((-4.380274e+01 -3.763288e+02 2.048579e+00) (-4.386511e-03 8.340361e+00 4.227694e-01))
0.0594318     	((4.204738e+01 -5.821553e-17 8.915572e+02) (8.445744e+00 -1.154570e-20 8.449456e-02)) ((-4.457786e+01 -3.848730e+02 2.102369e+00) (-4.224728e-03 8.332531e+00 4.222872e-01))
0.06          	((4.137164e+01 -5.800852e-17 8.919985e+02) (8.438015e+00 -9.022760e-21 8.058911e-02)) ((-4.459992e+01 -3.855046e+02 2.068582e+00) (-4.029455e-03 8.327233e+00 4.219007e-01))
0.0605556     	((3.898647e+01 -5.794620e-17 9.011467e+02) (8.430262e+00 -8.308619e-21 7.368455e-02)) ((-4.505733e+01 -3.918641e+02 1.949323e+00) (-3.684227e-03 8.324327e+00 4.215131e-01))
0.0611111     	((2.460479e+01 -4.645069e-17 7.396472e+02) (8.426116e+00 -9.328199e-21 7.175882e-02)) ((-3.698236e+01 -3.005188e+02 1.230239e+00) (-3.587941e-03 8.321455e+00 4.213058e-01))
0.0616667     	((4.050249e+01 -5.836186e-17 9.002766e+02) (8.414350e+00 -1.100239e-20 6.754292e-02)) ((-4.501383e+01 -3.902587e+02 2.025125e+00) (-3.377146e-03 8.312553e+00 4.207175e-01))
0.0622222     	((3.829871e+01 -5.880112e-17 9.161766e+02) (8.397342e+00 -1.323668e-20 6.280592e-02)) ((-4.580883e+01 -4.013856e+02 1.914935e+00) (-3.140296e-03 8.298815e+00 4.198671e-01))
0.0627778     	((3.710678e+01 -5.727868e-17 8.903577e+02) (8.377696e+00 -1.400532e-20 5.905858e-02)) ((-4.451788e+01 -3.860428e+02 1.855339e+00) (-2.952929e-03 8.281657e+00 4.188848e-01))
0.0633333     	((3.609088e+01 -5.816320e-17 9.044568e+02) (8.356762e+00 -1.477126e-20 5.175296e-02)) ((-4.522284e+01 -3.960689e+02 1.804544e+00) (-2.587648e-03 8.265817e+00 4.178381e-01))
0.0638889     	((1.832205e+00 -5.626864e-17 8.729633e+02) (8.325513e+00 -1.599521e-20 5.254785e-02)) ((-4.364817e+01 -3.985903e+02 9.161027e-02) (-2.627393e-03 8.233662e+00 4.162757e-01))
0.0644444     	((2.616378e+01 -6.043480e-17 9.933403e+02) (8.292125e+00 -2.071641e-20 5.106702e-02)) ((-4.966701e+01 -4.567152e+02 1.308189e+00) (-2.553351e-03 8.200897e+00 4.146063e-01))
0.065         	((2.994298e+01 -5.822250e-17 9.570805e+02) (8.262661e+00 -2.401669e-20 4.909381e-02)) ((-4.785403e+01 -4.289612e+02 1.497149e+00) (-2.454691e-03 8.172544e+00 4.131331e-01))
0.0655556     	((2.845347e+01 -5.807615e-17 9.430593e+02) (8.234986e+00 -2.707811e-20 4.542762e-02)) ((-4.715296e+01 -4.203005e+02 1.422674e+00) (-2.271381e-03 8.147406e+00 4.117493e-01))
0.0661111     	((2.768060e+01 -5.754246e-17 9.264676e+02) (8.214585e+00 -3.358177e-20 3.370068e-02)) ((-4.632338e+01 -4.098650e+02 1.384030e+00) (-1.685034e-03 8.136096e+00 4.107292e-01))
0.0666667     	((9.176290e+00 -5.378878e-17 7.597719e+02) (8.197592e+00 -2.855369e-20 3.971019e-02)) ((-3.798860e+01 -3.101393e+02 4.588145e-01) (-1.985510e-03 8.114469e+00 4.098796e-01))
0.0672222     	((2.928411e+01 -5.850209e-17 9.429985e+02) (8.176772e+00 -3.054630e-20 3.621870e-02)) ((-4.714992e+01 -4.187013e+02 1.464205e+00) (-1.810935e-03 8.096445e+00 4.088386e-01))
0.0677778     	((2.696485e+01 -5.800290e-17 9.298303e+02) (8.159897e+00 -3.118687e-20 3.170875e-02)) ((-4.649152e+01 -4.111647e+02 1.348243e+00) (-1.585438e-03 8.083218e+00 4.079948e-01))
0.0683333     	((2.508455e+01 -5.810916e-17 9.392441e+02) (8.149172e+00 -2.857514e-20 2.372975e-02)) ((-4.696220e+01 -4.182398e+02 1.254227e+00) (-1.186487e-03 8.078988e+00 4.074586e-01))
0.0688889     	((-4.316966e+00 5.347897e-17 6.880093e+02) (8.149613e+00 -2.853681e-20 1.743266e-02)) ((-3.440046e+01 -2.651257e+02 -2.158483e-01) (-8.716329e-04 8.084874e+00 4.074806e-01))
0.0694444     	((2.214814e+01 -4.692973e-17 9.188008e+02) (8.150179e+00 -2.718479e-20 1.074360e-02)) ((-4.594004e+01 -4.039259e+02 1.107407e+00) (-5.371801e-04 8.091144e+00 4.075090e-01))
0.07          	((2.482664e+01 -5.258255e-17 9.336834e+02) (8.148809e+00 -2.553096e-20 4.035992e-03)) ((-4.668417e+01 -4.107527e+02 1.241332e+00) (-2.017996e-04 8.095344e+00 4.074404e-01))
0.0705556     	((2.253127e+01 -4.587646e-17 9.231513e+02) (8.141833e+00 -1.793329e-20 -6.504703e-03)) ((-4.615757e+01 -4.032620e+02 1.126564e+00) (3.252351e-04 8.097037e+00 4.070917e-01))
0.0711111     	((1.561985e+01 -3.143967e-17 8.806285e+02) (8.122904e+00 -1.102227e-20 -6.300276e-03)) ((-4.403143e+01 -3.753503e+02 7.809924e-01) (3.150138e-04 8.077659e+00 4.061452e-01))
0.0716667     	((-7.376861e+00 1.390473e-17 6.930690e+02) (8.104334e+00 -8.365007e-21 -1.179842e-02)) ((-3.465345e+01 -2.580858e+02 -3.688431e-01) (5.899211e-04 8.063274e+00 4.052167e-01))
0.0722222     	((1.878925e+01 -2.513968e-17 9.140211e+02) (8.071129e+00 -4.972702e-21 -1.366224e-02)) ((-4.570106e+01 -3.932458e+02 9.394626e-01) (6.831122e-04 8.030860e+00 4.035564e-01))
0.0727778     	((-2.100744e+01 7.140181e-17 1.042224e+03) (8.010778e+00 3.697106e-21 -1.279533e-02)) ((-5.211118e+01 -4.806382e+02 -1.050372e+00) (6.397666e-04 7.968934e+00 4.005389e-01))
0.0733333     	((-2.041140e+01 7.753753e-17 1.032921e+03) (7.936805e+00 5.940089e-21 -6.538131e-03)) ((-5.164607e+01 -4.741494e+02 -1.020570e+00) (3.269065e-04 7.888620e+00 3.968402e-01))
0.0738889     	((-6.089425e+01 1.203213e-16 4.727847e+02) (7.862710e+00 -1.088197e-20 4.733806e-02)) ((-2.363923e+01 -1.107717e+02 -3.044712e+00) (-2.366903e-03 7.766323e+00 3.931355e-01))
0.0744444     	((-6.278805e+00 6.119884e-17 8.270873e+02) (7.780310e+00 -2.124898e-20 6.667008e-02)) ((-4.135437e+01 -3.259751e+02 -3.139402e-01) (-3.333504e-03 7.665583e+00 3.890155e-01))
0.075         	((-1.657793e+02 5.846260e-16 -1.495829e+02) (7.711147e+00 -1.824434e-20 6.530979e-02)) ((7.479145e+00 3.054632e+02 -8.288966e+00) (-3.265489e-03 7.597161e+00 3.855573e-01))
0.0755556     	((-2.803765e+02 6.440390e-16 -5.692348e+02) (7.621842e+00 -2.811893e-20 5.901252e-02)) ((2.846174e+01 5.922228e+02 -1.401883e+01) (-2.950626e-03 7.513706e+00 3.810921e-01))
0.0761111     	((-2.169262e+03 1.752769e-15 -5.635618e+03) (7.377478e+00 -1.587262e-20 4.091716e-02)) ((2.817809e+02 4.134352e+03 -1.084631e+02) (-2.045858e-03 7.297002e+00 3.688739e-01))
0.0766667     	((7.851650e+01 -5.414739e-17 7.193225e+02) (7.351375e+00 -2.572872e-20 4.391156e-02)) ((-3.596612e+01 -1.986631e+02 3.925825e+00) (-2.195578e-03 7.274548e+00 3.675688e-01))
0.0772222     	((7.033119e+01 -4.848276e-17 7.534167e+02) (7.322857e+00 -3.125169e-20 5.353235e-02)) ((-3.767084e+01 -2.314145e+02 3.516559e+00) (-2.676618e-03 7.242106e+00 3.661429e-01))
0.0777778     	((7.127161e+01 -4.668285e-17 7.429147e+02) (7.302769e+00 -2.721997e-20 5.495867e-02)) ((-3.714574e+01 -2.239047e+02 3.563580e+00) (-2.747933e-03 7.223184e+00 3.651385e-01))
0.0783333     	((6.849291e+01 -4.631369e-17 7.206499e+02) (7.287971e+00 -1.694785e-20 5.355887e-02)) ((-3.603250e+01 -2.206597e+02 3.424646e+00) (-2.677943e-03 7.210578e+00 3.643985e-01))
0.0788889     	((6.570399e+01 -4.718368e-17 6.791273e+02) (7.280178e+00 -6.292215e-21 4.952462e-02)) ((-3.395637e+01 -2.031557e+02 3.285200e+00) (-2.476231e-03 7.205298e+00 3.640089e-01))
0.0794444     	((6.381454e+01 -5.381212e-17 6.886446e+02) (7.280770e+00 2.184986e-21 4.073893e-02)) ((-3.443223e+01 -2.128720e+02 3.190727e+00) (-2.036947e-03 7.210150e+00 3.640385e-01))
0.08          	((5.440541e+01 -5.644988e-17 7.906911e+02) (7.281224e+00 1.064301e-20 2.765489e-02)) ((-3.953455e+01 -2.932401e+02 2.720271e+00) (-1.382745e-03 7.216862e+00 3.640612e-01))
0.0805882     	((5.684523e+01 -4.529871e-17 7.030498e+02) (7.285963e+00 1.224963e-20 1.474948e-02)) ((-3.515249e+01 -2.310264e+02 2.842262e+00) (-7.374739e-04 7.225998e+00 3.642982e-01))
0.0811765     	((5.497516e+01 -4.659289e-17 7.066218e+02) (7.294992e+00 1.000133e-20 -8.772686e-03)) ((-3.533109e+01 -2.362473e+02 2.748758e+00) (4.386343e-04 7.248443e+00 3.647496e-01))
0.0817647     	((4.390286e+01 -4.356212e-17 6.645633e+02) (7.309216e+00 7.928119e-21 -9.531361e-03)) ((-3.322817e+01 -2.077209e+02 2.195143e+00) (4.765681e-04 7.255713e+00 3.654608e-01))
0.0823529     	((3.837308e+01 -4.225642e-17 7.403264e+02) (7.317121e+00 6.127196e-21 -1.623593e-02)) ((-3.701632e+01 -2.677893e+02 1.918654e+00) (8.117967e-04 7.262351e+00 3.658560e-01))
0.0829412     	((1.815316e+01 -4.576352e-17 1.013897e+03) (7.321315e+00 1.804700e-21 -2.530198e-02)) ((-5.069487e+01 -4.620981e+02 9.076582e-01) (1.265099e-03 7.268543e+00 3.660657e-01))
0.0835504     	((-7.614236e+01 -7.140011e-17 2.054612e+03) (7.300481e+00 -1.143227e-21 -3.399173e-02)) ((-1.027306e+02 -1.219311e+03 -3.807118e+00) (1.699587e-03 7.251363e+00 3.650240e-01))
0.0840987     	((1.047925e+01 -1.385602e-17 7.891371e+02) (7.325830e+00 -5.181954e-21 -6.370893e-02)) ((-3.945685e+01 -3.109735e+02 5.239625e-01) (3.185447e-03 7.299311e+00 3.662915e-01))
0.0846471     	((-1.448234e+02 3.657494e-16 -4.605829e+02) (7.338494e+00 4.217322e-21 -4.506004e-02)) ((2.302915e+01 4.995254e+02 -7.241168e+00) (2.253002e-03 7.294841e+00 3.669247e-01))
0.0851954     	((-8.392160e+00 6.075436e-17 5.775471e+02) (7.339022e+00 2.811864e-21 -3.931897e-02)) ((-2.887736e+01 -1.688813e+02 -4.196080e-01) (1.965949e-03 7.288975e+00 3.669511e-01))