# Forces      
# CofR        : (0.000000e+00 0.000000e+00 -1.000000e+00)
# Time        forces(pressure viscous)	moments(pressure viscous)
0             	((-1.421085e-14 1.504542e-17 0.000000e+00) (4.623306e+00 -1.805953e-20 4.403836e-01)) ((-1.421085e-14 -5.684342e-14 3.552714e-15) (-2.201918e-02 4.406094e+00 2.311653e-01))
1.19976e-05   	((1.000311e+05 -2.435257e-14 3.255244e+05) (4.657157e+00 -1.039607e-20 4.100751e-01)) ((-1.627622e+04 1.355396e+04 5.001555e+03) (-2.050376e-02 4.448760e+00 2.328578e-01))
2.63878e-05   	((1.553924e+04 -3.868113e-15 5.302464e+04) (4.663494e+00 -1.147199e-20 4.062902e-01)) ((-2.651232e+03 9.885364e+02 7.769620e+02) (-2.031451e-02 4.452262e+00 2.331747e-01))
4.36511e-05   	((8.913235e+03 -2.269364e-15 3.004914e+04) (4.675658e+00 -9.731017e-21 4.057644e-01)) ((-1.502457e+03 9.177187e+02 4.456618e+02) (-2.028822e-02 4.462217e+00 2.337829e-01))
6.43527e-05   	((6.050781e+03 -1.508771e-15 2.025534e+04) (4.692539e+00 -8.787223e-21 4.056902e-01)) ((-1.012767e+03 5.493676e+02 3.025391e+02) (-2.028451e-02 4.477632e+00 2.346269e-01))
8.91792e-05   	((4.346234e+03 -1.042822e-15 1.409351e+04) (4.711671e+00 -8.279687e-21 4.057080e-01)) ((-7.046756e+02 4.251176e+02 2.173117e+02) (-2.028540e-02 4.495607e+00 2.355835e-01))
0.000118941   	((3.271317e+03 -7.879279e-16 1.057287e+04) (4.733787e+00 -8.059364e-21 4.059492e-01)) ((-5.286434e+02 3.185815e+02 1.635658e+02) (-2.029746e-02 4.516901e+00 2.366894e-01))
0.000154634   	((2.423151e+03 -5.327002e-16 1.174968e+04) (4.760126e+00 -7.710792e-21 4.063176e-01)) ((-5.874840e+02 -1.768055e+03 1.211576e+02) (-2.031588e-02 4.542431e+00 2.380063e-01))
0.000197405   	((2.135247e+03 -4.793664e-16 6.311902e+03) (4.791017e+00 -7.626960e-21 4.074559e-01)) ((-3.155951e+02 2.512393e+02 1.067624e+02) (-2.037279e-02 4.572128e+00 2.395508e-01))
0.000248707   	((1.568005e+03 -3.515912e-16 4.743092e+03) (4.826617e+00 -7.494725e-21 4.090599e-01)) ((-2.371546e+02 1.682799e+02 7.840027e+01) (-2.045300e-02 4.606474e+00 2.413308e-01))
0.000310237   	((1.464870e+03 -2.750738e-16 5.816555e+03) (4.870883e+00 -6.274834e-21 4.110767e-01)) ((-2.908277e+02 -9.242596e+02 7.324348e+01) (-2.055384e-02 4.649563e+00 2.435441e-01))
0.000383982   	((1.228957e+03 -2.527368e-16 3.269882e+03) (4.923314e+00 -6.143340e-21 4.133189e-01)) ((-1.634941e+02 1.680789e+02 6.144784e+01) (-2.066595e-02 4.700319e+00 2.461657e-01))
0.000472342   	((1.071750e+03 -2.136119e-16 2.795895e+03) (4.987558e+00 -6.062936e-21 4.157340e-01)) ((-1.397948e+02 1.270193e+02 5.358751e+01) (-2.078670e-02 4.762530e+00 2.493779e-01))
0.000577897   	((9.854340e+02 -1.684024e-16 3.193975e+03) (5.067414e+00 -4.215597e-21 4.192347e-01)) ((-1.596987e+02 -4.504795e+02 4.927170e+01) (-2.096174e-02 4.840053e+00 2.533707e-01))
0.000704014   	((9.967924e+02 -1.866841e-16 1.965965e+03) (5.167755e+00 -4.364153e-21 4.223790e-01)) ((-9.829823e+01 2.467252e+02 4.983962e+01) (-2.111895e-02 4.937594e+00 2.583877e-01))
0.000854764   	((2.407426e+03 -5.045104e-16 2.866122e+03) (5.321819e+00 -2.208563e-21 4.145091e-01)) ((-1.433061e+02 6.459411e+02 1.203713e+02) (-2.072545e-02 5.090150e+00 2.660909e-01))
0.00103538    	((9.075088e+02 -2.601583e-16 1.594472e+03) (5.490849e+00 -1.992718e-21 4.197078e-01)) ((-7.972361e+01 2.850137e+00 4.537544e+01) (-2.098539e-02 5.255014e+00 2.745424e-01))
0.00125089    	((4.342155e+02 -1.182347e-16 1.584431e+03) (5.698485e+00 -1.892782e-21 4.281399e-01)) ((-7.922153e+01 -1.662297e+02 2.171077e+01) (-2.140699e-02 5.456749e+00 2.849243e-01))
0.00150772    	((4.306902e+02 -1.368242e-16 1.381057e+03) (5.960364e+00 -2.069418e-22 4.401357e-01)) ((-6.905284e+01 -2.817793e+02 2.153451e+01) (-2.200678e-02 5.712914e+00 2.980182e-01))
0.00181593    	((3.686151e+02 -2.443587e-16 1.139526e+03) (6.270278e+00 3.173175e-21 4.602680e-01)) ((-5.697629e+01 -2.242615e+02 1.843075e+01) (-2.301340e-02 6.015659e+00 3.135139e-01))
0.00217961    	((2.699921e+02 -8.813967e-17 9.983081e+02) (6.622134e+00 6.173818e-21 4.800834e-01)) ((-4.991540e+01 -9.696240e+01 1.349961e+01) (-2.400417e-02 6.359349e+00 3.311067e-01))
0.00261425    	((2.590669e+02 -1.268298e-16 8.916038e+02) (7.018942e+00 4.945791e-21 5.077247e-01)) ((-4.458019e+01 -1.859128e+02 1.295335e+01) (-2.538623e-02 6.744826e+00 3.509471e-01))
0.0031256     	((1.875083e+02 -9.450174e-17 1.049727e+03) (7.451611e+00 1.974601e-21 5.328116e-01)) ((-5.248633e+01 -2.714843e+02 9.375415e+00) (-2.664058e-02 7.167310e+00 3.725805e-01))
0.00372826    	((1.826563e+02 -8.070773e-17 7.811075e+02) (7.917957e+00 4.252585e-21 5.599355e-01)) ((-3.905537e+01 -1.941751e+02 9.132815e+00) (-2.799678e-02 7.623357e+00 3.958979e-01))
0.00443572    	((1.429901e+02 -1.061004e-16 8.232531e+02) (8.407326e+00 6.167382e-21 5.861968e-01)) ((-4.116266e+01 -2.168660e+02 7.149504e+00) (-2.930984e-02 8.103045e+00 4.203663e-01))
0.0052549     	((1.409294e+02 -6.329631e-17 6.542023e+02) (8.911403e+00 1.265666e-20 6.117886e-01)) ((-3.271012e+01 -1.395697e+02 7.046468e+00) (-3.058943e-02 8.597057e+00 4.455701e-01))
0.0062379     	((1.041095e+02 -1.374956e-16 1.227284e+03) (9.442719e+00 1.136910e-20 6.507592e-01)) ((-6.136418e+01 -5.039912e+02 5.205477e+00) (-3.253796e-02 9.106865e+00 4.721360e-01))
0.00738474    	((9.342405e+01 -6.498429e-17 6.309740e+02) (9.948909e+00 1.322317e-20 6.682419e-01)) ((-3.154870e+01 -1.966759e+02 4.671203e+00) (-3.341209e-02 9.609409e+00 4.974454e-01))
0.00864627    	((4.921561e+01 -2.981983e-17 9.555332e+02) (1.035830e+01 -1.944399e-21 6.587125e-01)) ((-4.777666e+01 -4.749500e+02 2.460780e+00) (-3.293562e-02 1.004374e+01 5.179148e-01))
0.00967843    	((8.373103e+01 -4.464706e-17 5.438676e+02) (1.064717e+01 -4.305553e-21 6.563179e-01)) ((-2.719338e+01 -1.325390e+02 4.186551e+00) (-3.281590e-02 1.034332e+01 5.323585e-01))
0.0107106     	((7.899727e+01 -4.101726e-17 4.755321e+02) (1.088491e+01 -6.063928e-21 6.578412e-01)) ((-2.377661e+01 -1.462363e+02 3.949863e+00) (-3.289206e-02 1.058860e+01 5.442455e-01))
0.0117427     	((6.018695e+01 -4.431411e-17 7.180753e+02) (1.108461e+01 -6.944909e-21 6.519919e-01)) ((-3.590376e+01 -2.718478e+02 3.009348e+00) (-3.259960e-02 1.079959e+01 5.542303e-01))
0.0125685     	((2.962072e+01 -1.047986e-16 1.357266e+03) (1.122861e+01 -8.052401e-21 6.482614e-01)) ((-6.786332e+01 -6.926423e+02 1.481036e+00) (-3.241307e-02 1.095167e+01 5.614306e-01))
0.0133942     	((6.567366e+01 -3.984194e-17 5.654820e+02) (1.135331e+01 -7.733874e-21 6.474778e-01)) ((-2.827410e+01 -1.817186e+02 3.283683e+00) (-3.237389e-02 1.108324e+01 5.676653e-01))
0.0142199     	((6.456707e+01 -4.213178e-17 6.035642e+02) (1.146533e+01 -6.105845e-21 6.395688e-01)) ((-3.017821e+01 -2.036985e+02 3.228353e+00) (-3.197844e-02 1.120547e+01 5.732667e-01))
0.0150456     	((5.241115e+01 -6.118213e-17 7.713501e+02) (1.156398e+01 -5.311065e-21 6.331752e-01)) ((-3.856750e+01 -3.345920e+02 2.620557e+00) (-3.165876e-02 1.131384e+01 5.781989e-01))
0.0158714     	((6.180279e+01 -4.638021e-17 5.213227e+02) (1.164661e+01 -4.955094e-21 6.354360e-01)) ((-2.606613e+01 -1.949547e+02 3.090139e+00) (-3.177180e-02 1.140174e+01 5.823307e-01))
0.0166971     	((5.934891e+01 -4.677254e-17 6.487967e+02) (1.171691e+01 -4.735660e-21 6.306175e-01)) ((-3.243984e+01 -2.400846e+02 2.967445e+00) (-3.153088e-02 1.148040e+01 5.858455e-01))
0.0175228     	((5.984049e+01 -4.739099e-17 6.465711e+02) (1.177767e+01 -5.160997e-21 6.238015e-01)) ((-3.232856e+01 -2.389553e+02 2.992025e+00) (-3.119008e-02 1.155016e+01 5.888837e-01))
0.0183485     	((5.860003e+01 -4.640906e-17 6.321744e+02) (1.183121e+01 -6.058779e-21 6.127623e-01)) ((-3.160872e+01 -2.351767e+02 2.930002e+00) (-3.063812e-02 1.161446e+01 5.915603e-01))
0.0191743     	((5.647938e+01 -4.794709e-17 6.230797e+02) (1.186642e+01 -4.860503e-21 6.077372e-01)) ((-3.115399e+01 -2.403296e+02 2.823969e+00) (-3.038686e-02 1.165631e+01 5.933208e-01))
0.02          	((4.959544e+01 -4.901959e-17 6.948680e+02) (1.177520e+01 3.917571e-22 6.154916e-01)) ((-3.474340e+01 -3.053135e+02 2.479772e+00) (-3.077458e-02 1.155782e+01 5.887602e-01))
0.0208696     	((4.196407e+01 -5.069135e-17 8.436604e+02) (1.194056e+01 -4.061050e-21 6.136381e-01)) ((-4.218302e+01 -3.961179e+02 2.098203e+00) (-3.068190e-02 1.172417e+01 5.970279e-01))
0.0217391     	((5.160597e+01 -4.800087e-17 7.280272e+02) (1.194603e+01 -4.605461e-21 5.938922e-01)) ((-3.640136e+01 -3.112146e+02 2.580299e+00) (-2.969461e-02 1.174517e+01 5.973015e-01))
0.0225331     	((4.993043e+01 -4.724628e-17 6.247306e+02) (1.194816e+01 -4.161517e-21 5.836554e-01)) ((-3.123653e+01 -2.606328e+02 2.496522e+00) (-2.918277e-02 1.175637e+01 5.974081e-01))
0.0233648     	((5.582656e+01 -4.627979e-17 6.558259e+02) (1.194613e+01 -4.282416e-21 5.692856e-01)) ((-3.279130e+01 -2.609141e+02 2.791328e+00) (-2.846428e-02 1.176494e+01 5.973064e-01))
0.0241966     	((5.294356e+01 -4.651456e-17 6.599072e+02) (1.193767e+01 -5.110735e-21 5.545623e-01)) ((-3.299536e+01 -2.649074e+02 2.647178e+00) (-2.772812e-02 1.176627e+01 5.968833e-01))
0.0250284     	((5.358464e+01 -4.686910e-17 6.660440e+02) (1.193180e+01 -5.668955e-21 5.358908e-01)) ((-3.330220e+01 -2.720434e+02 2.679232e+00) (-2.679454e-02 1.177198e+01 5.965901e-01))
0.0258601     	((5.173638e+01 -4.608462e-17 6.019041e+02) (1.190726e+01 -6.013080e-21 5.291327e-01)) ((-3.009521e+01 -2.403670e+02 2.586819e+00) (-2.645663e-02 1.174962e+01 5.953629e-01))
0.0266919     	((4.667850e+01 -4.890462e-17 7.573768e+02) (1.191359e+01 -5.094964e-21 5.092093e-01)) ((-3.786884e+01 -3.395211e+02 2.333925e+00) (-2.546046e-02 1.176876e+01 5.956797e-01))
0.0275236     	((5.184659e+01 -4.644623e-17 6.740900e+02) (1.188583e+01 -6.355731e-21 4.932080e-01)) ((-3.370450e+01 -2.783289e+02 2.592329e+00) (-2.466040e-02 1.174911e+01 5.942917e-01))
0.0283554     	((4.902281e+01 -4.818170e-17 6.785821e+02) (1.185183e+01 -7.436093e-21 4.743825e-01)) ((-3.392910e+01 -2.877092e+02 2.451140e+00) (-2.371912e-02 1.172381e+01 5.925915e-01))
0.0291871     	((5.158049e+01 -4.665057e-17 6.184710e+02) (1.180523e+01 -7.128607e-21 4.665166e-01)) ((-3.092355e+01 -2.515671e+02 2.579024e+00) (-2.332583e-02 1.167712e+01 5.902613e-01))
0.0300189     	((4.514878e+01 -4.921504e-17 7.457897e+02) (1.178144e+01 -7.638054e-21 4.458645e-01)) ((-3.728948e+01 -3.331183e+02 2.257439e+00) (-2.229323e-02 1.166354e+01 5.890720e-01))
0.0308507     	((5.103280e+01 -4.723362e-17 6.916247e+02) (1.173300e+01 -7.640873e-21 4.301154e-01)) ((-3.458123e+01 -2.925084e+02 2.551640e+00) (-2.150577e-02 1.161972e+01 5.866502e-01))
0.0316824     	((4.702731e+01 -4.744342e-17 6.026768e+02) (1.167355e+01 -8.666332e-21 4.189586e-01)) ((-3.013384e+01 -2.485392e+02 2.351366e+00) (-2.094793e-02 1.156004e+01 5.836774e-01))
0.0325142     	((4.486522e+01 -4.918847e-17 7.602990e+02) (1.166006e+01 -1.100290e-20 3.975377e-01)) ((-3.801495e+01 -3.470113e+02 2.243261e+00) (-1.987689e-02 1.155673e+01 5.830028e-01))
0.0333459     	((4.628064e+01 -4.803471e-17 7.122681e+02) (1.160927e+01 -9.327696e-21 3.824098e-01)) ((-3.561341e+01 -3.105453e+02 2.314032e+00) (-1.912049e-02 1.150962e+01 5.804635e-01))
0.0341777     	((5.074423e+01 -4.758457e-17 6.854693e+02) (1.155942e+01 -8.980140e-21 3.680217e-01)) ((-3.427347e+01 -2.885411e+02 2.537212e+00) (-1.840109e-02 1.146235e+01 5.779710e-01))
0.0350095     	((4.073388e+01 -6.354160e-17 6.568280e+02) (1.153267e+01 -1.088622e-20 3.560658e-01)) ((-3.284140e+01 -2.939788e+02 2.036694e+00) (-1.780329e-02 1.143884e+01 5.766335e-01))
0.0358412     	((4.661960e+01 -4.991638e-17 7.294037e+02) (1.149555e+01 -1.085776e-20 3.440594e-01)) ((-3.647018e+01 -3.220230e+02 2.330980e+00) (-1.720297e-02 1.140464e+01 5.747774e-01))
0.036673      	((4.476805e+01 -4.936036e-17 7.331235e+02) (1.146050e+01 -1.015412e-20 3.306218e-01)) ((-3.665617e+01 -3.276919e+02 2.238402e+00) (-1.653109e-02 1.137455e+01 5.730252e-01))
0.0373384     	((4.392452e+01 -5.071128e-17 7.380112e+02) (1.143543e+01 -5.510574e-21 3.133357e-01)) ((-3.690056e+01 -3.318914e+02 2.196226e+00) (-1.566678e-02 1.135799e+01 5.717717e-01))
0.0380038     	((3.808925e+01 -5.992715e-17 6.430616e+02) (1.140803e+01 -6.963851e-21 3.090256e-01)) ((-3.215308e+01 -2.909287e+02 1.904463e+00) (-1.545128e-02 1.133201e+01 5.704015e-01))
0.0386692     	((4.404296e+01 -4.997160e-17 7.396130e+02) (1.137889e+01 -8.185597e-21 2.978262e-01)) ((-3.698065e+01 -3.319450e+02 2.202148e+00) (-1.489131e-02 1.130951e+01 5.689446e-01))
0.0393346     	((4.392114e+01 -4.980615e-17 7.436288e+02) (1.132966e+01 -1.376075e-20 2.873738e-01)) ((-3.718144e+01 -3.350510e+02 2.196057e+00) (-1.436869e-02 1.126646e+01 5.664832e-01))
0.04          	((4.314697e+01 -4.979143e-17 7.505478e+02) (1.121437e+01 -1.738341e-20 2.799345e-01)) ((-3.752739e+01 -3.391157e+02 2.157348e+00) (-1.399672e-02 1.115338e+01 5.607186e-01))
0.0407407     	((3.701224e+01 -5.681168e-17 6.579002e+02) (1.112843e+01 -8.051052e-21 2.750793e-01)) ((-3.289501e+01 -2.963489e+02 1.850612e+00) (-1.375397e-02 1.107062e+01 5.564213e-01))
0.0415432     	((4.242845e+01 -5.043615e-17 7.521081e+02) (1.106068e+01 -3.700430e-21 2.622391e-01)) ((-3.760540e+01 -3.418960e+02 2.121422e+00) (-1.311196e-02 1.101266e+01 5.530341e-01))
0.0423457     	((4.269771e+01 -5.033634e-17 7.584739e+02) (1.097288e+01 2.411248e-21 2.508213e-01)) ((-3.792369e+01 -3.455683e+02 2.134885e+00) (-1.254106e-02 1.093318e+01 5.486441e-01))
0.0431481     	((4.123846e+01 -5.064859e-17 7.625808e+02) (1.087463e+01 -1.882039e-21 2.277304e-01)) ((-3.812904e+01 -3.494346e+02 2.061923e+00) (-1.138652e-02 1.085334e+01 5.437313e-01))
0.0439506     	((3.453793e+01 -5.618253e-17 6.812161e+02) (1.081883e+01 -3.112234e-21 2.074175e-01)) ((-3.406080e+01 -3.110799e+02 1.726897e+00) (-1.037088e-02 1.081615e+01 5.409416e-01))
0.0447531     	((3.816233e+01 -5.122845e-17 7.705529e+02) (1.078815e+01 -3.277352e-21 1.922888e-01)) ((-3.852764e+01 -3.555351e+02 1.908116e+00) (-9.614439e-03 1.079765e+01 5.394075e-01))
0.0455154     	((3.691118e+01 -5.140611e-17 7.578142e+02) (1.076521e+01 1.456359e-20 1.967106e-01)) ((-3.789071e+01 -3.449619e+02 1.845559e+00) (-9.835531e-03 1.076742e+01 5.382606e-01))
0.0463201     	((3.437555e+01 -5.451693e-17 6.744376e+02) (1.074417e+01 1.566833e-20 1.828062e-01)) ((-3.372188e+01 -3.021698e+02 1.718777e+00) (-9.140310e-03 1.075568e+01 5.372086e-01))
0.0470801     	((3.145971e+01 -5.497313e-17 7.489150e+02) (1.068144e+01 1.798041e-20 1.757958e-01)) ((-3.744575e+01 -3.477975e+02 1.572986e+00) (-8.789790e-03 1.069693e+01 5.340722e-01))
0.0478876     	((2.969947e+01 -5.257034e-17 8.201885e+02) (1.059583e+01 1.245242e-20 1.708611e-01)) ((-4.100942e+01 -3.902895e+02 1.484973e+00) (-8.543053e-03 1.061244e+01 5.297913e-01))
0.0486446     	((3.224935e+01 -5.047746e-17 7.790239e+02) (1.055849e+01 -3.362777e-22 1.697144e-01)) ((-3.895119e+01 -3.615919e+02 1.612468e+00) (-8.485722e-03 1.057305e+01 5.279244e-01))
0.0494557     	((2.441103e+01 -3.306852e-17 6.416236e+02) (1.053257e+01 -6.324312e-21 1.686429e-01)) ((-3.208118e+01 -2.882539e+02 1.220552e+00) (-8.432145e-03 1.054597e+01 5.266286e-01))
0.0502089     	((3.396021e+01 -5.174405e-17 7.730482e+02) (1.050545e+01 -1.376991e-20 1.620156e-01)) ((-3.865241e+01 -3.560000e+02 1.698010e+00) (-8.100780e-03 1.052203e+01 5.252723e-01))
0.0509621     	((3.384749e+01 -5.122160e-17 7.723813e+02) (1.048193e+01 -1.698873e-20 1.518222e-01)) ((-3.861907e+01 -3.542651e+02 1.692374e+00) (-7.591111e-03 1.050464e+01 5.240967e-01))
0.0517152     	((1.900310e+01 -4.106701e-17 6.233730e+02) (1.046303e+01 -2.052135e-20 1.428424e-01)) ((-3.116865e+01 -2.766910e+02 9.501550e-01) (-7.142122e-03 1.049137e+01 5.231513e-01))
0.0524684     	((2.906281e+01 -4.867930e-17 7.356188e+02) (1.044448e+01 -2.180811e-20 1.309274e-01)) ((-3.678094e+01 -3.349925e+02 1.453140e+00) (-6.546371e-03 1.048098e+01 5.222242e-01))
0.0532215     	((3.045684e+01 -4.991725e-17 7.578891e+02) (1.038747e+01 -2.501992e-20 1.172556e-01)) ((-3.789445e+01 -3.474476e+02 1.522842e+00) (-5.862781e-03 1.043318e+01 5.193736e-01))
0.0539747     	((2.895613e+01 -4.929268e-17 7.453769e+02) (1.030702e+01 -3.380486e-20 1.075563e-01)) ((-3.726885e+01 -3.402763e+02 1.447807e+00) (-5.377815e-03 1.035824e+01 5.153511e-01))
0.0547279     	((1.288122e+01 -4.385263e-17 5.905456e+02) (1.027296e+01 -2.978619e-20 1.020837e-01)) ((-2.952728e+01 -2.571277e+02 6.440608e-01) (-5.104186e-03 1.032644e+01 5.136479e-01))
0.055481      	((2.837679e+01 -5.030043e-17 7.652419e+02) (1.024450e+01 -2.259189e-20 9.208794e-02)) ((-3.826210e+01 -3.507651e+02 1.418839e+00) (-4.604397e-03 1.030377e+01 5.122249e-01))
0.0562342     	((2.816889e+01 -4.931138e-17 7.669613e+02) (1.021863e+01 -2.074535e-20 8.049669e-02)) ((-3.834806e+01 -3.503963e+02 1.408445e+00) (-4.024835e-03 1.028518e+01 5.109315e-01))
0.0569874     	((2.896103e+00 -4.319095e-17 5.233277e+02) (1.019717e+01 -1.706493e-20 7.181441e-02)) ((-2.616639e+01 -2.143285e+02 1.448051e-01) (-3.590720e-03 1.026899e+01 5.098586e-01))
0.0577405     	((2.435114e+01 -4.675940e-17 7.259874e+02) (1.016666e+01 -1.562677e-20 6.308512e-02)) ((-3.629937e+01 -3.256741e+02 1.217557e+00) (-3.154256e-03 1.024368e+01 5.083328e-01))
0.0584937     	((2.226090e+01 -3.541291e-17 7.225638e+02) (1.013070e+01 -1.640552e-20 5.530829e-02)) ((-3.612819e+01 -3.226504e+02 1.113045e+00) (-2.765415e-03 1.021225e+01 5.065352e-01))
0.0592468     	((-2.663303e+00 4.854831e-17 4.826506e+02) (1.010292e+01 -1.680495e-20 5.095773e-02)) ((-2.413253e+01 -1.870132e+02 -1.331651e-01) (-2.547886e-03 1.018652e+01 5.051460e-01))
0.06          	((2.041341e+01 -2.370413e-17 7.165223e+02) (1.006864e+01 -1.320812e-20 4.534613e-02)) ((-3.582611e+01 -3.183752e+02 1.020670e+00) (-2.267306e-03 1.015498e+01 5.034318e-01))
0.0607692     	((-1.935287e+01 7.165671e-17 7.792947e+02) (1.001152e+01 -1.086770e-20 4.677750e-02)) ((-3.896473e+01 -3.705847e+02 -9.676433e-01) (-2.338875e-03 1.009490e+01 5.005758e-01))
0.0615385     	((-3.756225e+01 1.056897e-16 4.691434e+02) (9.988362e+00 -2.366062e-21 5.450438e-02)) ((-2.345717e+01 -1.810768e+02 -1.878113e+00) (-2.725219e-03 1.006412e+01 4.994181e-01))
0.0623077     	((5.469906e+00 2.614846e-17 7.235806e+02) (9.976571e+00 -3.109533e-22 5.128090e-02)) ((-3.617903e+01 -3.228276e+02 2.734953e-01) (-2.564045e-03 1.005440e+01 4.988286e-01))
0.0630769     	((-6.195519e-02 3.713744e-17 6.504616e+02) (9.983178e+00 -2.521951e-21 4.889197e-02)) ((-3.252308e+01 -2.772427e+02 -3.097759e-03) (-2.444599e-03 1.006296e+01 4.991589e-01))
0.0638462     	((-4.036300e+01 7.383042e-17 3.513972e+02) (1.001332e+01 -1.263032e-20 6.049724e-02)) ((-1.756986e+01 -9.459316e+01 -2.018150e+00) (-3.024862e-03 1.008297e+01 5.006658e-01))
0.0646154     	((-1.168097e+02 -1.031064e-16 5.110588e+02) (9.888015e+00 -5.105463e-20 1.346416e-01)) ((-2.555294e+01 -1.847211e+02 -5.840484e+00) (-6.732079e-03 9.891198e+00 4.944008e-01))
0.0653846     	((-1.364013e+02 2.659710e-16 -1.128017e+02) (9.777311e+00 -3.922984e-20 1.840342e-01)) ((5.640086e+00 2.000178e+02 -6.820067e+00) (-9.201709e-03 9.736803e+00 4.888655e-01))
0.0661538     	((-1.572691e+03 1.593391e-15 -6.306148e+03) (9.519264e+00 1.279013e-22 1.420771e-01)) ((3.153074e+02 4.115163e+03 -7.863455e+01) (-7.103853e-03 9.521812e+00 4.759632e-01))
0.0669683     	((7.286109e+01 -4.534371e-17 6.079564e+02) (9.542250e+00 1.432445e-21 1.391750e-01)) ((-3.039782e+01 -1.877054e+02 3.643055e+00) (-6.958750e-03 9.556682e+00 4.771125e-01))
0.0678371     	((6.717428e+01 -4.092385e-17 6.011066e+02) (9.577957e+00 4.228737e-21 1.446849e-01)) ((-3.005533e+01 -1.968777e+02 3.358714e+00) (-7.234246e-03 9.598957e+00 4.788978e-01))
0.068648      	((6.292780e+01 -4.279056e-17 6.661697e+02) (9.628698e+00 5.433573e-21 1.440220e-01)) ((-3.330848e+01 -2.447971e+02 3.146390e+00) (-7.201099e-03 9.658677e+00 4.814349e-01))
0.0694048     	((6.065803e+01 -4.428522e-17 6.501357e+02) (9.691787e+00 7.032329e-21 1.354316e-01)) ((-3.250678e+01 -2.409148e+02 3.032902e+00) (-6.771581e-03 9.735784e+00 4.845894e-01))
0.0701616     	((5.705133e+01 -4.468871e-17 6.335865e+02) (9.759358e+00 7.715126e-21 1.303134e-01)) ((-3.167933e+01 -2.414036e+02 2.852566e+00) (-6.515672e-03 9.813250e+00 4.879679e-01))
0.0709184     	((3.172851e+01 -6.280392e-17 9.413721e+02) (9.821320e+00 8.514119e-21 1.278984e-01)) ((-4.706861e+01 -4.733621e+02 1.586425e+00) (-6.394918e-03 9.880969e+00 4.910660e-01))
0.0716752     	((2.395234e+01 -6.480191e-17 9.970958e+02) (9.867699e+00 7.850173e-21 1.248162e-01)) ((-4.985479e+01 -5.214606e+02 1.197617e+00) (-6.240808e-03 9.932394e+00 4.933849e-01))
0.072432      	((4.085593e+01 -6.508907e-17 6.905349e+02) (9.918914e+00 5.150286e-21 1.212543e-01)) ((-3.452675e+01 -3.080693e+02 2.042797e+00) (-6.062717e-03 9.987985e+00 4.959457e-01))
0.0731888     	((3.815354e+01 -6.123525e-17 6.924146e+02) (9.966173e+00 1.309220e-21 1.202668e-01)) ((-3.462073e+01 -3.076265e+02 1.907677e+00) (-6.013342e-03 1.003483e+01 4.983087e-01))
0.0739456     	((2.919038e+01 -6.568739e-17 6.047199e+02) (1.002181e+01 -1.523008e-22 1.095740e-01)) ((-3.023600e+01 -2.677712e+02 1.459519e+00) (-5.478700e-03 1.009731e+01 5.010903e-01))
0.0747024     	((1.074853e+01 -4.917098e-17 6.169843e+02) (1.007619e+01 -1.113656e-21 8.391647e-02)) ((-3.084921e+01 -2.896700e+02 5.374267e-01) (-4.195823e-03 1.017077e+01 5.038095e-01))
0.0754592     	((-2.811589e+01 -3.682467e-17 4.962502e+02) (1.010780e+01 -1.898610e-21 6.872233e-02)) ((-2.481251e+01 -2.317207e+02 -1.405795e+00) (-3.436117e-03 1.021249e+01 5.053898e-01))
0.076216      	((-5.372539e+01 9.727631e-17 -1.733593e+01) (1.014896e+01 1.050297e-20 8.504308e-02)) ((8.667963e-01 1.064962e+02 -2.686269e+00) (-4.252154e-03 1.023637e+01 5.074480e-01))
0.0769728     	((-7.694013e+01 2.037035e-16 -4.615904e+01) (1.023881e+01 1.745879e-20 2.002581e-02)) ((2.307952e+00 1.366606e+02 -3.847007e+00) (-1.001291e-03 1.038186e+01 5.119405e-01))
0.0777296     	((-5.190081e+01 7.934984e-17 2.109375e+02) (1.033778e+01 2.227552e-20 5.137925e-02)) ((-1.054687e+01 -5.709069e+00 -2.595041e+00) (-2.568963e-03 1.045019e+01 5.168891e-01))
0.0784864     	((-1.368810e+02 3.553994e-16 3.522003e+02) (1.035950e+01 4.571136e-20 3.272533e-02)) ((-1.761001e+01 -1.167512e+02 -6.844051e+00) (-1.636267e-03 1.048973e+01 5.179749e-01))
0.0792432     	((-1.190920e+02 1.426454e-16 1.018709e+02) (1.044451e+01 1.516119e-21 7.375923e-02)) ((-5.093546e+00 6.756704e+01 -5.954599e+00) (-3.687962e-03 1.053858e+01 5.222254e-01))
0.08          	((-4.348819e+02 2.312005e-16 -1.010727e+03) (1.047706e+01 9.818940e-21 8.191798e-02)) ((5.053636e+01 7.524310e+02 -2.174409e+01) (-4.095899e-03 1.056514e+01 5.238528e-01))
0.0807692     	((4.334139e+01 -4.037049e-17 4.750416e+02) (1.057890e+01 4.433955e-21 8.239778e-02)) ((-2.375208e+01 -1.785677e+02 2.167069e+00) (-4.119889e-03 1.067757e+01 5.289449e-01))
0.0814815     	((3.431149e+01 -3.410966e-17 3.672285e+02) (1.063950e+01 3.696378e-21 1.037777e-01)) ((-1.836143e+01 -1.461718e+02 1.715574e+00) (-5.188887e-03 1.074096e+01 5.319750e-01))
0.0822222     	((2.648388e+01 -1.150612e-17 4.619727e+02) (1.072545e+01 1.263153e-21 1.087688e-01)) ((-2.309863e+01 -1.623119e+02 1.324194e+00) (-5.438439e-03 1.083419e+01 5.362724e-01))
0.082963      	((8.987832e+00 -1.829641e-17 5.835505e+02) (1.080291e+01 -7.652754e-21 9.061630e-02)) ((-2.917753e+01 -2.527393e+02 4.493916e-01) (-4.530815e-03 1.092650e+01 5.401454e-01))
0.0837037     	((2.297889e+01 -2.351016e-17 5.559232e+02) (1.089360e+01 -1.216937e-20 6.684016e-02)) ((-2.779616e+01 -2.203572e+02 1.148945e+00) (-3.342008e-03 1.104176e+01 5.446798e-01))
0.0844444     	((1.637771e+01 -2.255055e-17 4.365398e+02) (1.099399e+01 7.954689e-21 1.734951e-02)) ((-2.182699e+01 -1.761154e+02 8.188857e-01) (-8.674756e-04 1.120195e+01 5.496995e-01))
0.0851852     	((-6.823651e+01 1.706041e-16 3.316666e+01) (1.104223e+01 4.394268e-20 2.788977e-03)) ((-1.658333e+00 2.657099e+01 -3.411826e+00) (-1.394488e-04 1.126756e+01 5.521113e-01))
0.0859259     	((-2.248607e+02 1.239573e-16 -4.006016e+02) (1.108575e+01 -3.479289e-20 2.923049e-02)) ((2.003008e+01 3.632043e+02 -1.124303e+01) (-1.461525e-03 1.128347e+01 5.542874e-01))
0.0866667     	((-6.879904e+01 3.207736e-17 -2.038248e+02) (1.109085e+01 -3.207880e-20 7.269268e-02)) ((1.019124e+01 1.454838e+02 -3.439952e+00) (-3.634634e-03 1.126628e+01 5.545425e-01))
0.0874074     	((-8.993649e+00 6.720181e-18 4.815157e+02) (1.112305e+01 -2.587259e-20 8.504914e-02)) ((-2.407578e+01 -1.480084e+02 -4.496825e-01) (-4.252457e-03 1.129166e+01 5.561525e-01))
0.0881481     	((-1.458122e+01 1.266358e-17 2.924310e+02) (1.114043e+01 -1.759332e-20 1.061882e-01)) ((-1.462155e+01 -7.578549e+01 -7.290610e-01) (-5.309408e-03 1.130260e+01 5.570217e-01))
0.0888889     	((-3.171529e+01 2.318014e-17 -9.759872e+01) (1.114073e+01 -1.515342e-20 1.195766e-01)) ((4.879936e+00 7.572113e+01 -1.585764e+00) (-5.978830e-03 1.129837e+01 5.570363e-01))
0.0896296     	((-1.447828e+01 1.341031e-17 3.222564e+02) (1.116360e+01 -1.324584e-20 1.224596e-01)) ((-1.611282e+01 -8.453506e+01 -7.239139e-01) (-6.122982e-03 1.132086e+01 5.581799e-01))
0.0903704     	((-1.487768e+01 1.490929e-17 2.700302e+02) (1.118375e+01 -1.061239e-20 1.315516e-01)) ((-1.350151e+01 -6.451947e+01 -7.438842e-01) (-6.577579e-03 1.133973e+01 5.591874e-01))
0.0911111     	((-1.713429e+01 1.782403e-17 1.329994e+02) (1.118573e+01 -1.104641e-20 1.420345e-01)) ((-6.649971e+00 -1.404336e+01 -8.567145e-01) (-7.101727e-03 1.133907e+01 5.592867e-01))
0.0918519     	((-1.206977e+01 1.341800e-17 3.520128e+02) (1.120511e+01 -8.391296e-21 1.477299e-01)) ((-1.760064e+01 -9.419881e+01 -6.034883e-01) (-7.386495e-03 1.135812e+01 5.602554e-01))
0.0925926     	((-1.282013e+01 1.398635e-17 3.384618e+02) (1.122721e+01 -6.447900e-21 1.519536e-01)) ((-1.692309e+01 -8.786435e+01 -6.410063e-01) (-7.597679e-03 1.138054e+01 5.613607e-01))
0.0933333     	((-1.493880e+01 1.796410e-17 1.407859e+02) (1.123211e+01 -3.123668e-21 1.631682e-01)) ((-7.039294e+00 -1.535783e+01 -7.469402e-01) (-8.158411e-03 1.138367e+01 5.616054e-01))
0.0940741     	((-1.271769e+01 1.590264e-17 2.428859e+02) (1.123387e+01 -6.296899e-22 1.697306e-01)) ((-1.214430e+01 -5.218069e+01 -6.358843e-01) (-8.486532e-03 1.138430e+01 5.616936e-01))
0.0948148     	((-1.176856e+01 1.415450e-17 3.376571e+02) (1.124663e+01 6.710658e-22 1.723935e-01)) ((-1.688286e+01 -8.622368e+01 -5.884278e-01) (-8.619675e-03 1.139733e+01 5.623317e-01))
0.0955556     	((-1.215054e+01 1.476191e-17 3.158544e+02) (1.126726e+01 1.144182e-21 1.710576e-01)) ((-1.579272e+01 -7.753883e+01 -6.075272e-01) (-8.552882e-03 1.141935e+01 5.633632e-01))
0.0962963     	((-1.218082e+01 1.858044e-17 1.199677e+02) (1.125169e+01 1.604284e-21 1.873876e-01)) ((-5.998384e+00 -6.901097e+00 -6.090409e-01) (-9.369380e-03 1.140045e+01 5.625846e-01))
0.097037      	((-1.085482e+01 1.473185e-17 3.217707e+02) (1.125810e+01 8.360357e-21 1.860195e-01)) ((-1.608853e+01 -7.960452e+01 -5.427408e-01) (-9.300974e-03 1.140741e+01 5.629048e-01))
0.0977778     	((-1.150218e+01 1.479967e-17 3.247451e+02) (1.127114e+01 1.025308e-20 1.881207e-01)) ((-1.623725e+01 -8.000789e+01 -5.751092e-01) (-9.406034e-03 1.142102e+01 5.635571e-01))
0.0985185     	((-1.123468e+01 1.534205e-17 3.027802e+02) (1.128055e+01 1.166779e-20 1.912697e-01)) ((-1.513901e+01 -7.182737e+01 -5.617340e-01) (-9.563483e-03 1.143072e+01 5.640273e-01))
0.0992593     	((-1.008330e+01 1.808360e-17 1.618038e+02) (1.127284e+01 5.456381e-21 2.011791e-01)) ((-8.090190e+00 -2.101479e+01 -5.041648e-01) (-1.005896e-02 1.142127e+01 5.636421e-01))
0.1           	((-1.027285e+01 1.533741e-17 3.134526e+02) (1.127871e+01 4.717863e-21 2.043081e-01)) ((-1.567263e+01 -7.539210e+01 -5.136427e-01) (-1.021540e-02 1.142719e+01 5.639354e-01))
0.100741      	((-1.092476e+01 1.535493e-17 3.212640e+02) (1.129088e+01 5.245750e-21 2.077338e-01)) ((-1.606320e+01 -7.776459e+01 -5.462379e-01) (-1.038669e-02 1.143979e+01 5.645442e-01))
0.101481      	((-1.079010e+01 1.586392e-17 3.202066e+02) (1.130225e+01 5.412997e-21 2.103644e-01)) ((-1.601033e+01 -7.711886e+01 -5.395052e-01) (-1.051822e-02 1.145172e+01 5.651123e-01))
0.102222      	((-1.036368e+01 2.166612e-17 2.835312e+02) (1.130708e+01 6.015569e-21 2.146034e-01)) ((-1.417656e+01 -6.404883e+01 -5.181841e-01) (-1.073017e-02 1.145659e+01 5.653541e-01))
0.102963      	((-8.967137e+00 3.445744e-17 2.225356e+02) (1.130227e+01 1.256537e-20 2.227039e-01)) ((-1.112678e+01 -4.191614e+01 -4.483568e-01) (-1.113520e-02 1.145073e+01 5.651136e-01))
0.103704      	((-9.988855e+00 2.588311e-17 3.106854e+02) (1.130505e+01 1.279139e-20 2.254421e-01)) ((-1.553427e+01 -7.381850e+01 -4.994427e-01) (-1.127211e-02 1.145358e+01 5.652524e-01))
0.104444      	((-1.030892e+01 2.470682e-17 3.196940e+02) (1.131191e+01 1.262159e-20 2.279576e-01)) ((-1.598470e+01 -7.678538e+01 -5.154459e-01) (-1.139788e-02 1.146081e+01 5.655957e-01))
0.105185      	((-1.044673e+01 2.433610e-17 3.243697e+02) (1.131801e+01 1.229226e-20 2.301066e-01)) ((-1.621848e+01 -7.861993e+01 -5.223364e-01) (-1.150533e-02 1.146734e+01 5.659003e-01))
0.105926      	((-1.046556e+01 2.419398e-17 3.254608e+02) (1.132252e+01 1.194690e-20 2.315869e-01)) ((-1.627304e+01 -7.901219e+01 -5.232779e-01) (-1.157934e-02 1.147233e+01 5.661262e-01))
0.106667      	((-1.042647e+01 2.432015e-17 3.242681e+02) (1.132446e+01 1.164995e-20 2.327149e-01)) ((-1.621340e+01 -7.875369e+01 -5.213235e-01) (-1.163574e-02 1.147467e+01 5.662229e-01))
0.107407      	((-1.025064e+01 2.469992e-17 3.165484e+02) (1.132257e+01 1.090673e-20 2.341231e-01)) ((-1.582742e+01 -7.612718e+01 -5.125320e-01) (-1.170616e-02 1.147297e+01 5.661284e-01))
0.108148      	((-9.645610e+00 2.565133e-17 2.947212e+02) (1.131620e+01 9.395491e-21 2.372309e-01)) ((-1.473606e+01 -6.830311e+01 -4.822805e-01) (-1.186155e-02 1.146634e+01 5.658098e-01))
0.108889      	((-9.650973e+00 2.431759e-17 3.013092e+02) (1.130916e+01 8.385949e-21 2.398912e-01)) ((-1.506546e+01 -7.101900e+01 -4.825487e-01) (-1.199456e-02 1.145906e+01 5.654579e-01))
0.10963       	((-9.986796e+00 2.231847e-17 3.210287e+02) (1.130223e+01 8.154315e-21 2.410183e-01)) ((-1.605144e+01 -7.816768e+01 -4.993398e-01) (-1.205092e-02 1.145209e+01 5.651113e-01))