# Forces      
# CofR        : (0.000000e+00 0.000000e+00 -1.000000e+00)
# Time        forces(pressure viscous)	moments(pressure viscous)
0             	((1.136868e-13 6.764460e-14 3.410605e-13) (1.237230e+01 -6.859526e-18 1.857656e+00)) ((-2.248934e-14 1.136868e-13 2.716866e-14) (-6.789421e-18 1.145844e+01 8.762263e-17))
1.19976e-05   	((1.943437e+05 2.175366e-12 1.247541e+06) (1.255967e+01 -6.728303e-18 1.645067e+00)) ((-8.858782e-12 -2.287584e+05 -4.006404e-12) (-9.540255e-18 1.170506e+01 9.344914e-17))
2.63878e-05   	((2.424556e+04 2.083819e-13 2.197199e+05) (1.264004e+01 -6.570745e-18 1.575139e+00)) ((-1.354116e-12 -5.653013e+04 -6.726868e-13) (-1.013820e-17 1.180455e+01 9.495716e-17))
4.36511e-05   	((1.380728e+04 1.426998e-13 1.232030e+05) (1.275017e+01 -6.271614e-18 1.536349e+00)) ((-7.877639e-13 -3.137091e+04 -3.640801e-13) (-1.065132e-17 1.192620e+01 9.629197e-17))
6.43527e-05   	((9.667789e+03 1.050856e-13 8.492007e+04) (1.289450e+01 -5.559500e-18 1.515861e+00)) ((-5.393348e-13 -2.181634e+04 -2.462411e-13) (-1.282994e-17 1.207500e+01 9.826127e-17))
8.91792e-05   	((6.975852e+03 7.287439e-14 5.946639e+04) (1.308215e+01 -5.001346e-18 1.501084e+00)) ((-3.388430e-13 -1.559546e+04 -1.668034e-13) (-1.420881e-17 1.226812e+01 1.001550e-16))
0.000118941   	((5.279374e+03 6.668677e-14 4.488908e+04) (1.333067e+01 -4.509281e-18 1.480593e+00)) ((-2.821683e-13 -1.163459e+04 -1.250610e-13) (-1.506774e-17 1.252283e+01 1.023067e-16))
0.000154634   	((3.828739e+03 3.985259e-14 3.438222e+04) (1.365801e+01 -4.056999e-18 1.463673e+00)) ((-2.309814e-13 -9.435415e+03 -1.098496e-13) (-1.551199e-17 1.285650e+01 1.046546e-16))
0.000197405   	((2.855617e+03 -1.955414e-14 2.969913e+04) (1.409766e+01 -4.595779e-18 1.442072e+00)) ((-2.481219e-13 -9.628254e+03 -1.523420e-13) (-1.242387e-17 1.330847e+01 1.050818e-16))
0.000248707   	((2.561616e+03 3.522881e-14 2.123991e+04) (1.469708e+01 -4.018896e-18 1.435752e+00)) ((-1.244236e-13 -6.026589e+03 -6.926499e-14) (-1.278375e-17 1.391037e+01 1.078083e-16))
0.000310237   	((1.949990e+03 2.836853e-14 1.693099e+04) (1.553266e+01 -2.343357e-18 1.438556e+00)) ((-1.135025e-13 -4.804795e+03 -5.498185e-14) (-1.401676e-17 1.474156e+01 1.128609e-16))
0.000383982   	((1.674973e+03 3.564313e-14 1.384828e+04) (1.672097e+01 -6.846008e-19 1.477406e+00)) ((-9.548130e-14 -3.655288e+03 -3.855240e-14) (-1.178770e-17 1.590404e+01 1.183966e-16))
0.000472342   	((1.535346e+03 4.189533e-14 1.058219e+04) (1.831065e+01 8.878684e-19 1.577165e+00)) ((-6.612044e-14 -2.709822e+03 -2.619030e-14) (-8.245025e-18 1.744363e+01 1.236804e-16))
0.000577897   	((1.091112e+03 -9.643090e-15 1.222499e+04) (2.003130e+01 -1.703663e-18 1.647970e+00)) ((1.078713e-13 -4.501133e+03 -4.691005e-14) (-1.131375e-17 1.914388e+01 1.254336e-16))
0.000704014   	((1.019700e+03 2.592438e-14 8.501836e+03) (2.182416e+01 -1.998091e-18 1.742241e+00)) ((-2.227159e-14 -2.452674e+03 -2.189573e-14) (-1.123719e-17 2.089898e+01 1.337300e-16))
0.000854764   	((9.853583e+02 3.516312e-14 6.697601e+03) (2.364343e+01 -1.861455e-18 1.856445e+00)) ((-2.313114e-14 -1.744828e+03 -1.256545e-14) (-1.299132e-17 2.267311e+01 1.432669e-16))
0.00103538    	((8.739058e+02 3.198260e-14 6.047649e+03) (2.546461e+01 1.388686e-18 1.984541e+00)) ((-2.633070e-14 -1.545478e+03 -1.087145e-14) (-1.959872e-17 2.441859e+01 1.584414e-16))
0.00125089    	((6.595504e+02 2.951720e-14 6.837456e+03) (2.713238e+01 -5.040061e-19 2.036109e+00)) ((7.706266e-16 -2.707677e+03 -1.217352e-14) (-1.758071e-17 2.609479e+01 1.702135e-16))
0.00150425    	((7.478556e+02 3.561278e-14 4.453084e+03) (2.858932e+01 -9.015029e-19 2.088730e+00)) ((-2.555767e-14 -1.001080e+03 -4.125808e-15) (-1.753949e-17 2.753795e+01 1.779105e-16))
0.00179325    	((7.917891e+02 4.060630e-14 3.925089e+03) (2.979585e+01 -1.656010e-18 2.159245e+00)) ((-2.839583e-14 -8.462316e+02 -2.484081e-15) (-1.664499e-17 2.870100e+01 1.867483e-16))
0.00211267    	((8.382233e+02 3.411612e-14 4.427269e+03) (3.068454e+01 -2.398279e-18 2.131937e+00)) ((-1.121197e-14 -1.270543e+03 -6.580923e-15) (-1.438856e-17 2.962379e+01 1.961856e-16))
0.00237964    	((3.025923e+03 3.681071e-14 1.038260e+04) (3.147385e+01 -2.714933e-18 2.006786e+00)) ((7.111598e-14 -3.813265e+03 -3.960153e-14) (-1.365301e-17 3.048384e+01 2.104642e-16))
0.00263136    	((8.734918e+02 4.352868e-14 3.243546e+03) (3.185605e+01 -2.619193e-18 1.927528e+00)) ((-1.825282e-14 -5.782393e+02 1.100070e-16) (-1.651696e-17 3.092291e+01 2.090122e-16))
0.00279999    	((6.889455e+02 3.726449e-14 3.413337e+03) (3.203510e+01 -2.724539e-18 1.856111e+00)) ((-2.815491e-14 -8.396645e+02 -1.983538e-15) (-1.706593e-17 3.114672e+01 2.022623e-16))
0.00296862    	((6.328235e+02 3.581605e-14 3.285112e+03) (3.212787e+01 -2.534758e-18 1.821928e+00)) ((-2.777653e-14 -9.048551e+02 -2.236438e-15) (-1.521235e-17 3.126888e+01 1.958446e-16))
0.00314241    	((4.413517e+02 2.727653e-14 4.044704e+03) (3.215781e+01 -2.770256e-18 1.763298e+00)) ((-1.011831e-14 -1.345458e+03 -5.187002e-15) (-1.563486e-17 3.133650e+01 1.919156e-16))
0.00332174    	((5.987377e+02 3.897982e-14 3.102276e+03) (3.216110e+01 -1.823287e-18 1.760862e+00)) ((-3.292377e-14 -1.063028e+03 -3.005723e-15) (-1.422348e-17 3.136153e+01 1.939841e-16))
0.00350914    	((3.570374e+02 2.646063e-14 3.911671e+03) (3.210488e+01 -1.829866e-18 1.705081e+00)) ((-1.541299e-14 -1.371445e+03 -4.623086e-15) (-1.265327e-17 3.133990e+01 2.006501e-16))
0.00370546    	((3.285120e+02 2.407789e-14 4.106872e+03) (3.202443e+01 -1.289544e-18 1.658680e+00)) ((-1.184788e-14 -1.556181e+03 -6.276247e-15) (-1.184465e-17 3.128688e+01 2.097564e-16))
0.00390914    	((5.361602e+01 -1.088998e-14 9.384806e+03) (3.189818e+01 -8.684354e-19 1.650102e+00)) ((3.833356e-14 -5.350091e+03 -3.622202e-14) (-1.073756e-17 3.118943e+01 2.276976e-16))
0.00405813    	((-1.925731e+02 -1.637080e-14 1.042194e+04) (3.176496e+01 -9.950874e-19 1.627014e+00)) ((5.456866e-14 -6.832431e+03 -3.881630e-14) (-9.777465e-18 3.108041e+01 2.373866e-16))
0.00419323    	((4.995387e+02 3.833646e-14 2.169463e+03) (3.166645e+01 -7.452110e-19 1.589070e+00)) ((-2.575244e-14 -6.635431e+02 7.895562e-16) (-8.669437e-18 3.100444e+01 2.426322e-16))
0.004303      	((3.202229e+02 2.856787e-14 3.067293e+03) (3.158365e+01 -7.390628e-19 1.565266e+00)) ((-1.486206e-14 -1.003127e+03 -1.328001e-15) (-8.159293e-18 3.092797e+01 2.453503e-16))
0.00441512    	((2.819866e+02 2.760403e-14 2.975733e+03) (3.150527e+01 -6.822286e-19 1.537286e+00)) ((-9.175222e-15 -1.092330e+03 -9.299901e-16) (-7.753133e-18 3.086148e+01 2.474339e-16))
0.00452971    	((4.691299e+02 2.676836e-14 1.897439e+03) (3.146145e+01 -8.571973e-19 1.553923e+00)) ((1.644242e-14 -8.815118e+02 -3.131321e-15) (-9.268238e-18 3.082164e+01 2.442111e-16))
0.00464347    	((2.507437e+02 2.814504e-14 2.778428e+03) (3.135778e+01 -8.550835e-19 1.538449e+00)) ((-1.311187e-14 -9.826593e+02 5.554588e-17) (-9.734549e-18 3.072720e+01 2.385576e-16))
0.00475893    	((4.753136e+01 1.271532e-14 5.129577e+03) (3.124245e+01 -6.880515e-19 1.499244e+00)) ((1.061825e-14 -2.884416e+03 -1.185764e-14) (-1.041841e-17 3.064357e+01 2.320020e-16))
0.00487018    	((1.944891e+02 2.581890e-14 2.934727e+03) (3.113416e+01 -6.211816e-19 1.469377e+00)) ((-9.109099e-15 -1.183734e+03 -9.234098e-16) (-1.132076e-17 3.055363e+01 2.243570e-16))
0.0049848     	((1.963651e+02 2.612132e-14 2.824437e+03) (3.102265e+01 -5.315493e-19 1.439126e+00)) ((-8.937438e-15 -1.126407e+03 -5.139401e-16) (-1.244584e-17 3.045999e+01 2.165005e-16))
0.00510119    	((2.006244e+02 2.513029e-14 2.747738e+03) (3.090874e+01 -4.366965e-19 1.410938e+00)) ((-4.158866e-15 -1.165178e+03 -1.173931e-15) (-1.362988e-17 3.036278e+01 2.091215e-16))
0.00521759    	((2.375855e+02 2.464250e-14 2.177100e+03) (3.080323e+01 -2.631973e-19 1.401799e+00)) ((-1.595364e-15 -9.028782e+02 -5.085696e-16) (-1.460903e-17 3.026824e+01 1.966479e-16))
0.00533585    	((3.075675e+02 2.405822e-14 1.542766e+03) (3.070310e+01 -1.178495e-19 1.407436e+00)) ((4.452835e-15 -6.422616e+02 -3.795656e-16) (-1.495135e-17 3.017454e+01 1.794955e-16))
0.00545704    	((1.717711e+02 2.725083e-14 2.358746e+03) (3.055629e+01 -6.516643e-20 1.398194e+00)) ((-9.835266e-15 -8.862886e+02 1.557938e-15) (-1.486607e-17 3.003625e+01 1.760010e-16))
0.00558134    	((1.680478e+02 2.750671e-14 2.259388e+03) (3.041717e+01 -8.904193e-21 1.384108e+00)) ((-9.862373e-15 -8.384485e+02 1.967712e-15) (-1.466977e-17 2.990766e+01 1.752397e-16))
0.00570894    	((1.699014e+02 2.719772e-14 2.122119e+03) (3.028385e+01 7.193256e-20 1.366489e+00)) ((-8.562618e-15 -7.915242e+02 2.064056e-15) (-1.457727e-17 2.978636e+01 1.751060e-16))
0.00583886    	((1.504019e+02 2.718608e-14 2.165375e+03) (3.014481e+01 1.863638e-19 1.345792e+00)) ((-9.257067e-15 -8.123478e+02 2.232555e-15) (-1.475052e-17 2.965995e+01 1.761419e-16))
0.00597121    	((1.505959e+02 2.734440e-14 2.111256e+03) (3.001002e+01 2.905459e-19 1.322246e+00)) ((-9.220745e-15 -7.853871e+02 2.451530e-15) (-1.522831e-17 2.953869e+01 1.771906e-16))
0.00610741    	((1.494788e+02 2.750492e-14 2.055201e+03) (2.986862e+01 3.534172e-19 1.299227e+00)) ((-9.393920e-15 -7.542924e+02 2.717584e-15) (-1.553175e-17 2.941029e+01 1.783563e-16))
0.00624633    	((1.715041e+02 2.747265e-14 1.615118e+03) (2.972995e+01 2.406775e-19 1.286958e+00)) ((-2.743381e-14 -6.245809e+02 2.830852e-15) (-1.396512e-17 2.928083e+01 1.823626e-16))
0.0063896     	((1.842899e+02 2.762337e-14 1.417842e+03) (2.957898e+01 7.039022e-20 1.294370e+00)) ((-3.394316e-14 -5.558382e+02 2.989382e-15) (-1.002902e-17 2.913194e+01 1.903616e-16))
0.00653917    	((1.475787e+02 2.764897e-14 1.973453e+03) (2.940496e+01 9.576300e-20 1.286557e+00)) ((-9.306907e-15 -7.187912e+02 2.982620e-15) (-8.765295e-18 2.896408e+01 1.979382e-16))
0.00670535    	((1.449927e+02 2.766626e-14 1.935593e+03) (2.922533e+01 -1.933553e-20 1.274278e+00)) ((-8.938916e-15 -7.061975e+02 3.138111e-15) (-7.609421e-18 2.879394e+01 2.047811e-16))
0.00690378    	((1.274296e+02 2.666880e-14 2.033200e+03) (2.890923e+01 -1.033496e-19 1.269999e+00)) ((-7.709461e-15 -7.937691e+02 2.601553e-15) (-5.110204e-18 2.847623e+01 2.211077e-16))
0.00714189    	((1.110403e+02 2.518968e-14 2.214676e+03) (2.853207e+01 1.832128e-20 1.289960e+00)) ((-5.325778e-15 -9.497219e+02 1.467360e-15) (2.311187e-19 2.807018e+01 2.386756e-16))
0.00742763    	((1.286909e+02 2.680065e-14 1.893546e+03) (2.809181e+01 -1.798901e-19 1.268787e+00)) ((-9.055319e-15 -7.380733e+02 2.936443e-15) (2.943241e-18 2.763568e+01 2.594877e-16))
0.00775848    	((1.427012e+02 3.161076e-14 1.491152e+03) (2.750292e+01 -1.588218e-19 1.283864e+00)) ((-1.420606e-14 -5.809355e+02 4.820127e-15) (5.883556e-18 2.702896e+01 2.958770e-16))
0.00814102    	((1.302696e+02 2.774368e-14 1.758145e+03) (2.776807e+01 9.157010e-19 1.248881e+00)) ((-8.319950e-15 -6.654535e+02 3.654540e-15) (3.609707e-18 2.731988e+01 2.377784e-16))
0.00858025    	((1.271596e+02 2.732676e-14 1.758101e+03) (2.734978e+01 8.005163e-19 1.192954e+00)) ((-7.542612e-15 -6.612233e+02 3.635413e-15) (2.267577e-18 2.694651e+01 2.461971e-16))
0.00898809    	((1.243470e+02 2.723128e-14 1.750257e+03) (2.705021e+01 8.223143e-19 1.132148e+00)) ((-7.337813e-15 -6.619449e+02 3.643339e-15) (3.153114e-18 2.667573e+01 2.545438e-16))
0.00929398    	((1.222191e+02 2.731848e-14 1.750347e+03) (2.677240e+01 8.361281e-19 1.107581e+00)) ((-7.135244e-15 -6.718689e+02 3.632563e-15) (3.950885e-18 2.641389e+01 2.659213e-16))
0.00956163    	((1.302041e+02 3.295698e-14 1.434973e+03) (2.645040e+01 9.424145e-19 1.088050e+00)) ((-9.165987e-15 -5.711656e+02 5.369463e-15) (5.347705e-18 2.609702e+01 2.843239e-16))
0.00981016    	((1.242567e+02 2.708148e-14 1.726910e+03) (2.601369e+01 8.974188e-19 1.064947e+00)) ((-6.644461e-15 -6.538394e+02 3.705808e-15) (9.124633e-18 2.565237e+01 3.116905e-16))
0.0100528     	((1.210923e+02 2.690432e-14 1.753005e+03) (2.648298e+01 1.716464e-18 9.712734e-01)) ((-6.372059e-15 -6.777456e+02 3.540100e-15) (5.818989e-18 2.617407e+01 2.475349e-16))
0.0102896     	((1.202343e+02 2.692559e-14 1.718662e+03) (2.632112e+01 1.975495e-18 8.776777e-01)) ((-6.842443e-15 -6.630293e+02 3.638552e-15) (5.901202e-18 2.605958e+01 2.515842e-16))
0.0105265     	((1.203993e+02 2.684384e-14 1.730190e+03) (2.615600e+01 1.423369e-18 7.818525e-01)) ((-6.173042e-15 -6.729755e+02 3.563977e-15) (7.599913e-18 2.593852e+01 2.546444e-16))
0.0107694     	((1.189109e+02 2.691432e-14 1.716802e+03) (2.600104e+01 1.432463e-18 6.588319e-01)) ((-6.358399e-15 -6.645729e+02 3.648057e-15) (1.036958e-17 2.583395e+01 2.598678e-16))
0.0110188     	((1.190368e+02 2.758738e-14 1.664983e+03) (2.582704e+01 2.555918e-18 5.062441e-01)) ((-6.657016e-15 -6.495452e+02 3.881260e-15) (1.252247e-17 2.571765e+01 2.689561e-16))
0.0112552     	((1.199864e+02 2.775757e-14 1.608254e+03) (2.562569e+01 5.845537e-18 3.335535e-01)) ((-4.908215e-15 -6.269712e+02 3.928727e-15) (1.148495e-17 2.557848e+01 2.811662e-16))
0.0114453     	((1.211431e+02 2.953135e-14 1.449247e+03) (2.588019e+01 8.450424e-18 1.445349e-01)) ((-7.123226e-16 -6.062086e+02 4.073224e-15) (6.737680e-18 2.591945e+01 2.506844e-16))
0.0116164     	((1.183903e+02 2.693377e-14 1.690419e+03) (2.584754e+01 8.511135e-18 -2.413351e-02)) ((-6.432163e-15 -6.536775e+02 3.729149e-15) (3.872400e-18 2.596037e+01 2.487423e-16))
0.0117776     	((1.155785e+02 2.670781e-14 1.709090e+03) (2.576577e+01 8.048877e-18 -1.643852e-01)) ((-6.131170e-15 -6.700654e+02 3.602281e-15) (-5.539783e-19 2.593435e+01 2.483759e-16))
0.0119328     	((1.179313e+02 2.699239e-14 1.670886e+03) (2.561890e+01 6.390081e-18 -2.740462e-01)) ((-6.328581e-15 -6.480926e+02 3.755423e-15) (-7.160572e-18 2.582684e+01 2.489711e-16))
0.0120879     	((1.178884e+02 2.691435e-14 1.666291e+03) (2.539828e+01 3.398744e-18 -3.647471e-01)) ((-6.274652e-15 -6.455252e+02 3.751331e-15) (-1.669956e-17 2.563369e+01 2.511707e-16))
0.0122461     	((1.151322e+02 2.684323e-14 1.681574e+03) (2.549864e+01 1.965064e-19 -4.611455e-01)) ((-5.516193e-15 -6.676265e+02 3.596102e-15) (-3.348917e-17 2.577445e+01 2.150326e-16))
0.0124111     	((1.153474e+02 2.693540e-14 1.671949e+03) (2.524453e+01 -2.037688e-18 -5.403281e-01)) ((-5.709935e-15 -6.580504e+02 3.707227e-15) (-5.354286e-17 2.553974e+01 2.118056e-16))
0.0125836     	((1.172766e+02 2.708087e-14 1.648802e+03) (2.487292e+01 -1.728385e-18 -6.142275e-01)) ((-6.199172e-15 -6.393730e+02 3.867268e-15) (-7.844729e-17 2.517880e+01 2.202650e-16))
0.0127448     	((1.115672e+02 2.663560e-14 1.716910e+03) (2.521520e+01 1.210489e-18 -7.418013e-01)) ((-5.652209e-15 -6.906745e+02 3.526219e-15) (-1.127015e-16 2.558813e+01 1.560545e-16))
0.0128992     	((1.135111e+02 2.682497e-14 1.683738e+03) (2.503388e+01 3.660855e-18 -8.506019e-01)) ((-5.948828e-15 -6.640201e+02 3.723615e-15) (-1.446375e-16 2.545200e+01 1.470734e-16))
0.0130441     	((1.128779e+02 2.675219e-14 1.706628e+03) (2.476232e+01 5.781039e-18 -9.499745e-01)) ((-5.752746e-15 -6.837377e+02 3.563258e-15) (-1.746547e-16 2.521385e+01 1.496496e-16))
0.0131805     	((1.134873e+02 2.680639e-14 1.676667e+03) (2.461321e+01 7.497473e-18 -1.059151e+00)) ((-5.859503e-15 -6.631035e+02 3.705368e-15) (-2.042037e-16 2.510737e+01 1.414582e-16))
0.0133116     	((1.131975e+02 2.671031e-14 1.680010e+03) (2.450214e+01 8.588426e-18 -1.171116e+00)) ((-5.735451e-15 -6.665084e+02 3.643654e-15) (-2.318666e-16 2.504263e+01 1.308141e-16))
0.0134402     	((1.125654e+02 2.662964e-14 1.675935e+03) (2.435765e+01 7.062011e-18 -1.281962e+00)) ((-5.610201e-15 -6.646860e+02 3.638473e-15) (-2.547045e-16 2.494873e+01 1.236206e-16))
0.0135664     	((1.126075e+02 2.669620e-14 1.669606e+03) (2.420248e+01 6.085806e-18 -1.396476e+00)) ((-5.553663e-15 -6.624156e+02 3.666248e-15) (-2.770085e-16 2.485574e+01 1.176015e-16))
0.0136925     	((1.170075e+02 2.527977e-14 1.219635e+03) (2.406583e+01 5.677699e-18 -1.510036e+00)) ((1.933939e-15 -5.234577e+02 2.607095e-15) (-2.991147e-16 2.479151e+01 1.127951e-16))
0.0138187     	((1.130592e+02 2.679687e-14 1.671136e+03) (2.392106e+01 5.028672e-18 -1.611577e+00)) ((-5.457948e-15 -6.634734e+02 3.685621e-15) (-3.189625e-16 2.471798e+01 9.918422e-17))
0.0139475     	((1.132164e+02 2.679942e-14 1.665819e+03) (2.382082e+01 4.815895e-18 -1.693872e+00)) ((-5.290826e-15 -6.620062e+02 3.673544e-15) (-3.356682e-16 2.468190e+01 7.406317e-17))
0.0140762     	((1.134554e+02 2.685428e-14 1.642890e+03) (2.372725e+01 4.788985e-18 -1.759187e+00)) ((-5.267028e-15 -6.471455e+02 3.782296e-15) (-3.455291e-16 2.464225e+01 4.190817e-17))
0.0142079     	((1.135807e+02 2.677071e-14 1.618489e+03) (2.360644e+01 4.920388e-18 -1.784443e+00)) ((-4.915353e-15 -6.362213e+02 3.769427e-15) (-3.443268e-16 2.454370e+01 1.018090e-17))
0.0143458     	((1.135891e+02 2.681303e-14 1.609500e+03) (2.346065e+01 2.666605e-18 -1.810888e+00)) ((-5.148486e-15 -6.301782e+02 3.834977e-15) (-3.301704e-16 2.441583e+01 -1.804200e-17))
0.0144908     	((1.139524e+02 2.699041e-14 1.619716e+03) (2.331314e+01 7.713334e-19 -1.839984e+00)) ((-5.611244e-15 -6.345283e+02 3.895759e-15) (-3.108732e-16 2.428502e+01 -3.753901e-17))
0.0146438     	((1.140928e+02 2.704116e-14 1.619441e+03) (2.315054e+01 -1.184316e-18 -1.906588e+00)) ((-5.776678e-15 -6.338877e+02 3.921880e-15) (-2.897990e-16 2.417135e+01 -4.681148e-17))
0.0148061     	((1.143458e+02 2.708682e-14 1.613525e+03) (2.296369e+01 -2.701153e-18 -2.020738e+00)) ((-5.888476e-15 -6.297544e+02 3.962201e-15) (-2.636915e-16 2.407474e+01 -5.064139e-17))
0.0149852     	((1.136840e+02 2.706213e-14 1.605383e+03) (2.274281e+01 -3.871384e-18 -2.172973e+00)) ((-5.951066e-15 -6.241547e+02 4.021999e-15) (-2.323238e-16 2.397507e+01 -5.044339e-17))
0.015171      	((1.135485e+02 2.705180e-14 1.604581e+03) (2.253337e+01 -4.126351e-18 -2.342027e+00)) ((-6.018346e-15 -6.248327e+02 3.995892e-15) (-1.993344e-16 2.389987e+01 -4.708243e-17))
0.0153567     	((1.134997e+02 2.705038e-14 1.600807e+03) (2.236736e+01 -3.989607e-18 -2.511098e+00)) ((-6.109429e-15 -6.240775e+02 3.970267e-15) (-1.656735e-16 2.386605e+01 -4.323455e-17))
0.0154822     	((1.124140e+02 2.696027e-14 1.606130e+03) (2.227629e+01 -3.696735e-18 -2.627576e+00)) ((-6.187991e-15 -6.263008e+02 3.945651e-15) (-1.411230e-16 2.386251e+01 -4.022839e-17))
0.0156077     	((1.123132e+02 2.692829e-14 1.606852e+03) (2.219846e+01 -3.392897e-18 -2.747199e+00)) ((-6.211496e-15 -6.265975e+02 3.920407e-15) (-1.155611e-16 2.387512e+01 -3.786413e-17))
0.0157332     	((1.116078e+02 2.394937e-14 1.218136e+03) (2.214949e+01 -3.727702e-18 -2.870549e+00)) ((1.275712e-14 -5.067605e+02 1.826394e-15) (-8.884624e-17 2.392353e+01 -4.247015e-17))
0.0158587     	((1.125963e+02 2.630876e-14 1.509294e+03) (2.209071e+01 -4.071425e-18 -2.993956e+00)) ((-2.084612e-15 -5.942559e+02 3.492603e-15) (-6.091385e-17 2.396653e+01 -4.174503e-17))
0.0159842     	((1.126079e+02 2.693149e-14 1.590203e+03) (2.201545e+01 -4.380945e-18 -3.112699e+00)) ((-6.075077e-15 -6.220676e+02 3.880720e-15) (-3.177463e-17 2.399535e+01 -3.575739e-17))
0.0161097     	((1.120613e+02 2.693083e-14 1.583346e+03) (2.192406e+01 -4.767818e-18 -3.221222e+00)) ((-6.368833e-15 -6.171394e+02 3.938581e-15) (-7.456128e-19 2.400742e+01 -2.515370e-17))
0.0162351     	((1.117780e+02 2.695141e-14 1.590290e+03) (2.181376e+01 -4.829077e-18 -3.315894e+00)) ((-6.762524e-15 -6.224364e+02 3.922365e-15) (3.108489e-17 2.399675e+01 -8.898035e-18))
0.0163606     	((1.111324e+02 2.691067e-14 1.597625e+03) (2.169000e+01 -4.058273e-18 -3.403539e+00)) ((-6.902634e-15 -6.281086e+02 3.885443e-15) (5.963756e-17 2.397017e+01 1.191254e-17))
0.0164906     	((1.111370e+02 2.692802e-14 1.588832e+03) (2.156750e+01 -2.593134e-18 -3.487590e+00)) ((-7.079641e-15 -6.230910e+02 3.921818e-15) (8.432850e-17 2.394519e+01 3.347836e-17))
0.0166256     	((1.115193e+02 2.694484e-14 1.582812e+03) (2.145637e+01 -2.763383e-18 -3.593639e+00)) ((-6.582728e-15 -6.190372e+02 3.922050e-15) (1.020513e-16 2.394221e+01 5.213796e-17))
0.0167662     	((1.112477e+02 2.687389e-14 1.594648e+03) (2.136136e+01 -3.393085e-18 -3.716915e+00)) ((-6.038105e-15 -6.269879e+02 3.822303e-15) (1.140649e-16 2.396383e+01 6.765336e-17))
0.0169202     	((1.113744e+02 2.688607e-14 1.582114e+03) (2.127711e+01 -7.278663e-18 -3.855008e+00)) ((-5.802106e-15 -6.184468e+02 3.872757e-15) (1.260290e-16 2.400514e+01 8.036041e-17))
0.0170823     	((1.111978e+02 2.687511e-14 1.579550e+03) (2.120912e+01 -1.216584e-17 -3.996587e+00)) ((-5.727062e-15 -6.155738e+02 3.896590e-15) (1.363392e-16 2.406327e+01 9.128255e-17))
0.0172539     	((1.112594e+02 2.689307e-14 1.574611e+03) (2.115983e+01 -1.647976e-17 -4.139951e+00)) ((-5.695328e-15 -6.122351e+02 3.921096e-15) (1.440218e-16 2.413948e+01 1.017268e-16))
0.0174255     	((1.111313e+02 2.688208e-14 1.576253e+03) (2.112938e+01 -2.022619e-17 -4.278429e+00)) ((-5.560945e-15 -6.148951e+02 3.882754e-15) (1.495022e-16 2.422735e+01 1.116081e-16))
0.0175972     	((1.108959e+02 2.686130e-14 1.578555e+03) (2.111422e+01 -2.353205e-17 -4.409667e+00)) ((-5.420995e-15 -6.176729e+02 3.847412e-15) (1.536134e-16 2.432145e+01 1.211996e-16))
0.0177236     	((1.099321e+02 2.677696e-14 1.594489e+03) (2.111029e+01 -2.586643e-17 -4.506109e+00)) ((-5.294374e-15 -6.281899e+02 3.768412e-15) (1.560400e-16 2.439493e+01 1.283887e-16))
0.0178501     	((1.100578e+02 2.680017e-14 1.587152e+03) (2.111188e+01 -2.793130e-17 -4.598193e+00)) ((-5.296178e-15 -6.226164e+02 3.817129e-15) (1.578390e-16 2.446837e+01 1.356947e-16))
0.0179766     	((1.103943e+02 2.684471e-14 1.578148e+03) (2.111902e+01 -2.921229e-17 -4.683450e+00)) ((-5.306207e-15 -6.172829e+02 3.850373e-15) (1.584862e-16 2.454089e+01 1.433531e-16))
0.0180956     	((1.102434e+02 2.683511e-14 1.563671e+03) (2.112837e+01 -2.845299e-17 -4.754256e+00)) ((-5.346110e-15 -6.117295e+02 3.853950e-15) (1.564601e-16 2.460451e+01 1.514764e-16))
0.0182146     	((1.059258e+02 2.781848e-14 1.164084e+03) (2.116869e+01 -2.723494e-17 -4.807041e+00)) ((-2.959875e-14 -4.828335e+02 4.975216e-15) (1.535865e-16 2.469017e+01 1.581785e-16))
0.0183336     	((1.102134e+02 2.687974e-14 1.575142e+03) (2.117707e+01 -2.588743e-17 -4.845239e+00)) ((-5.182468e-15 -6.173261e+02 3.838531e-15) (1.490415e-16 2.473302e+01 1.673247e-16))
0.0184527     	((1.097185e+02 2.689246e-14 1.577446e+03) (2.117377e+01 -2.415050e-17 -4.861791e+00)) ((-5.296695e-15 -6.182420e+02 3.856159e-15) (1.435613e-16 2.475163e+01 1.767526e-16))
0.0185717     	((1.093296e+02 2.689925e-14 1.584197e+03) (2.115667e+01 -2.202124e-17 -4.857730e+00)) ((-5.277788e-15 -6.246948e+02 3.800572e-15) (1.367195e-16 2.474442e+01 1.863874e-16))
0.0187015     	((1.090831e+02 2.698009e-14 1.557014e+03) (2.112800e+01 -1.945867e-17 -4.843137e+00)) ((-6.646140e-15 -6.143105e+02 3.893190e-15) (1.275758e-16 2.471910e+01 1.967092e-16))
0.0188314     	((1.093966e+02 2.702607e-14 1.554659e+03) (2.110702e+01 -1.602707e-17 -4.821377e+00)) ((-6.174486e-15 -6.094049e+02 3.945234e-15) (1.155177e-16 2.469595e+01 2.068833e-16))
0.0189612     	((1.093821e+02 2.690514e-14 1.570057e+03) (2.109964e+01 -1.290938e-17 -4.816001e+00)) ((-5.527619e-15 -6.171749e+02 3.840621e-15) (1.024020e-16 2.469112e+01 2.158222e-16))
0.0190911     	((1.092655e+02 2.682992e-14 1.570441e+03) (2.110941e+01 -1.064219e-17 -4.819457e+00)) ((-5.414209e-15 -6.176847e+02 3.806754e-15) (8.985452e-17 2.470487e+01 2.234038e-16))
0.0192209     	((1.094326e+02 2.681638e-14 1.564061e+03) (2.114119e+01 -9.812719e-18 -4.828251e+00)) ((-5.392728e-15 -6.123908e+02 3.838873e-15) (7.893648e-17 2.474060e+01 2.285295e-16))
0.0193508     	((1.095177e+02 2.680270e-14 1.563303e+03) (2.118038e+01 -9.755090e-18 -4.839919e+00)) ((-5.293181e-15 -6.101052e+02 3.853598e-15) (6.946597e-17 2.478125e+01 2.338011e-16))
0.0194806     	((1.095868e+02 2.680027e-14 1.559311e+03) (2.123530e+01 -9.543757e-18 -4.854853e+00)) ((-5.304568e-15 -6.090766e+02 3.836006e-15) (6.042688e-17 2.483573e+01 2.386972e-16))
0.0196105     	((1.092396e+02 2.674920e-14 1.565725e+03) (2.130466e+01 -9.201365e-18 -4.874962e+00)) ((-5.288882e-15 -6.156010e+02 3.751641e-15) (5.191162e-17 2.490354e+01 2.433883e-16))
0.0197403     	((1.092766e+02 2.674935e-14 1.563460e+03) (2.138787e+01 -8.731041e-18 -4.900658e+00)) ((-5.228681e-15 -6.133589e+02 3.766655e-15) (4.375277e-17 2.498450e+01 2.479640e-16))
0.0198702     	((1.092128e+02 2.674250e-14 1.560174e+03) (2.148488e+01 -8.178422e-18 -4.932366e+00)) ((-5.203257e-15 -6.091312e+02 3.810522e-15) (3.584530e-17 2.507886e+01 2.523675e-16))
0.0199351     	((1.072732e+02 2.658277e-14 1.586336e+03) (2.154136e+01 -7.657641e-18 -4.947201e+00)) ((-5.119106e-15 -6.263922e+02 3.677875e-15) (3.095878e-17 2.512959e+01 2.542888e-16))
0.02          	((1.075972e+02 2.657510e-14 1.583101e+03) (2.159840e+01 -7.159319e-18 -4.963150e+00)) ((-5.109025e-15 -6.254424e+02 3.648047e-15) (2.614627e-17 2.517993e+01 2.567293e-16))
0.0200775     	((1.080390e+02 2.657860e-14 1.581977e+03) (2.167101e+01 -6.682054e-18 -4.987010e+00)) ((-5.049574e-15 -6.243090e+02 3.639753e-15) (2.060474e-17 2.524657e+01 2.596970e-16))
0.0201673     	((1.085420e+02 2.662730e-14 1.572891e+03) (2.176001e+01 -6.243706e-18 -5.020384e+00)) ((-5.029388e-15 -6.178020e+02 3.691526e-15) (1.426442e-17 2.533100e+01 2.631340e-16))
0.020269      	((1.090995e+02 2.668713e-14 1.563600e+03) (2.186830e+01 -5.845893e-18 -5.065002e+00)) ((-5.024201e-15 -6.115748e+02 3.739347e-15) (6.963259e-18 2.543668e+01 2.664008e-16))
0.020383      	((1.093845e+02 2.673172e-14 1.555025e+03) (2.198668e+01 -4.576341e-18 -5.118647e+00)) ((-5.038234e-15 -6.073701e+02 3.765830e-15) (-2.031169e-18 2.555190e+01 2.712680e-16))
0.0205064     	((1.093951e+02 2.677334e-14 1.544542e+03) (2.212298e+01 -2.566212e-18 -5.179343e+00)) ((-5.137546e-15 -6.016006e+02 3.820340e-15) (-1.227397e-17 2.568381e+01 2.765872e-16))
0.0206306     	((1.039669e+02 3.005431e-14 1.272853e+03) (2.226946e+01 -4.716208e-19 -5.240576e+00)) ((-1.552117e-14 -5.120894e+02 5.348505e-15) (-2.270398e-17 2.582262e+01 2.827832e-16))
0.0207555     	((1.070941e+02 2.824725e-14 1.422084e+03) (2.240105e+01 1.480210e-18 -5.300923e+00)) ((-9.512859e-15 -5.611112e+02 4.488682e-15) (-3.297157e-17 2.594065e+01 2.877924e-16))
0.0208813     	((1.091170e+02 2.683525e-14 1.540303e+03) (2.252206e+01 3.068114e-18 -5.364706e+00)) ((-4.777458e-15 -6.001133e+02 3.835916e-15) (-4.191975e-17 2.604480e+01 2.901122e-16))
0.0210096     	((1.090376e+02 2.684796e-14 1.535469e+03) (2.263652e+01 3.983010e-18 -5.438703e+00)) ((-4.747860e-15 -5.981924e+02 3.848731e-15) (-4.774219e-17 2.614179e+01 2.919773e-16))
0.0211424     	((1.088390e+02 2.681372e-14 1.539633e+03) (2.276638e+01 4.193639e-18 -5.529979e+00)) ((-4.670310e-15 -6.026935e+02 3.789609e-15) (-4.963096e-17 2.625730e+01 2.941036e-16))
0.0212811     	((1.084986e+02 2.674600e-14 1.552409e+03) (2.290518e+01 3.637996e-18 -5.658610e+00)) ((-4.798638e-15 -6.097438e+02 3.763360e-15) (-4.623119e-17 2.639341e+01 2.982530e-16))
0.0214273     	((1.087878e+02 2.678478e-14 1.544936e+03) (2.306734e+01 2.904872e-18 -5.819067e+00)) ((-5.034027e-15 -6.048599e+02 3.828577e-15) (-4.017331e-17 2.656277e+01 3.028680e-16))
0.0215572     	((1.081785e+02 2.670797e-14 1.557485e+03) (2.322481e+01 2.544969e-18 -5.985054e+00)) ((-5.017097e-15 -6.131940e+02 3.770353e-15) (-3.418044e-17 2.673290e+01 3.084606e-16))
0.0216754     	((1.083629e+02 2.672276e-14 1.553751e+03) (2.336259e+01 2.344970e-18 -6.150862e+00)) ((-5.018116e-15 -6.086405e+02 3.833096e-15) (-2.837040e-17 2.688490e+01 3.146661e-16))
0.0218092     	((1.086984e+02 2.678083e-14 1.544544e+03) (2.352504e+01 2.037707e-18 -6.350354e+00)) ((-5.222607e-15 -6.048706e+02 3.863454e-15) (-2.137125e-17 2.706932e+01 3.211111e-16))
0.0219583     	((1.088152e+02 2.676819e-14 1.546478e+03) (2.370560e+01 1.848158e-18 -6.581873e+00)) ((-5.184303e-15 -6.059063e+02 3.855846e-15) (-1.312680e-17 2.727826e+01 3.294649e-16))
0.022095      	((1.086367e+02 2.676632e-14 1.546826e+03) (2.387642e+01 1.802799e-18 -6.811196e+00)) ((-5.158993e-15 -6.048509e+02 3.890263e-15) (-5.416760e-18 2.747768e+01 3.369384e-16))
0.0222151     	((1.082734e+02 2.676413e-14 1.546863e+03) (2.402747e+01 1.803412e-18 -7.025505e+00)) ((-5.214140e-15 -6.064129e+02 3.887323e-15) (1.884915e-18 2.765501e+01 3.447171e-16))
0.0223263     	((1.078278e+02 2.670475e-14 1.557030e+03) (2.417662e+01 1.938347e-18 -7.233875e+00)) ((-5.166430e-15 -6.140804e+02 3.821069e-15) (9.121210e-18 2.783190e+01 3.535100e-16))
0.0224309     	((1.073784e+02 2.665543e-14 1.566886e+03) (2.432524e+01 2.102437e-18 -7.438436e+00)) ((-5.196608e-15 -6.216890e+02 3.758263e-15) (1.637240e-17 2.800943e+01 3.603953e-16))
0.022548      	((1.079553e+02 2.670752e-14 1.557270e+03) (2.447707e+01 2.448295e-18 -7.669681e+00)) ((-5.246464e-15 -6.136581e+02 3.839594e-15) (2.555571e-17 2.819508e+01 3.689832e-16))
0.0226726     	((1.081321e+02 2.673324e-14 1.552712e+03) (2.463067e+01 3.100140e-18 -7.917343e+00)) ((-5.320038e-15 -6.108591e+02 3.865015e-15) (3.639914e-17 2.838476e+01 3.793215e-16))
0.0227947     	((1.081607e+02 2.678007e-14 1.544799e+03) (2.478825e+01 3.632376e-18 -8.160732e+00)) ((-5.449242e-15 -6.062101e+02 3.917358e-15) (4.814163e-17 2.857726e+01 3.893853e-16))
0.0229057     	((1.076108e+02 2.674676e-14 1.550520e+03) (2.492116e+01 3.836278e-18 -8.378841e+00)) ((-5.422943e-15 -6.102142e+02 3.897017e-15) (6.006575e-17 2.873704e+01 3.994341e-16))
0.0230093     	((1.068224e+02 2.687412e-14 1.525984e+03) (2.504816e+01 4.034145e-18 -8.576475e+00)) ((-5.234827e-15 -6.027114e+02 3.909261e-15) (7.189243e-17 2.888520e+01 4.091344e-16))
0.0231075     	((9.558715e+01 2.917141e-14 1.098601e+03) (2.518045e+01 4.084340e-18 -8.753679e+00)) ((-2.053812e-15 -4.511280e+02 4.382244e-15) (8.417642e-17 2.903247e+01 4.177269e-16))
0.0232019     	((1.068797e+02 2.672597e-14 1.566949e+03) (2.527297e+01 4.140493e-18 -8.915006e+00)) ((-5.610002e-15 -6.231819e+02 3.811464e-15) (9.703741e-17 2.913247e+01 4.287508e-16))
0.0233089     	((1.075034e+02 2.683109e-14 1.550251e+03) (2.535158e+01 4.015118e-18 -9.085326e+00)) ((-5.777619e-15 -6.116405e+02 3.927256e-15) (1.117837e-16 2.921504e+01 4.401382e-16))