# Forces      
# CofR        : (0.000000e+00 0.000000e+00 -1.000000e+00)
# Time        forces(pressure viscous)	moments(pressure viscous)
0             	((1.136868e-13 6.764460e-14 3.410605e-13) (1.201362e+01 -1.357821e-17 4.295423e+00)) ((-2.248934e-14 1.136868e-13 2.716866e-14) (-1.863975e-17 9.900500e+00 8.040572e-17))
1.19976e-05   	((9.272342e+04 -5.392446e-12 4.112255e+06) (1.211304e+01 -1.310282e-17 3.590884e+00)) ((-1.554887e-11 -1.699826e+06 -1.438182e-11) (-1.628217e-17 1.034385e+01 8.797544e-17))
2.63878e-05   	((-1.354258e+02 -1.600636e-12 6.109873e+05) (1.205567e+01 -1.259331e-17 3.337677e+00)) ((-8.743544e-13 -3.010016e+05 -2.383254e-12) (-1.571269e-17 1.039863e+01 9.074603e-17))
4.36511e-05   	((1.143491e+02 -7.866590e-13 3.353159e+05) (1.202386e+01 -1.205102e-17 3.188651e+00)) ((-7.990432e-13 -1.621807e+05 -1.251479e-12) (-1.504041e-17 1.043686e+01 9.236294e-17))
6.43527e-05   	((1.072845e+02 -4.661010e-13 2.156688e+05) (1.201986e+01 -1.139881e-17 3.072489e+00)) ((-6.373999e-13 -1.033713e+05 -7.809905e-13) (-1.447692e-17 1.049048e+01 9.273140e-17))
8.91792e-05   	((5.815448e+02 -3.413990e-13 1.571261e+05) (1.203738e+01 -1.064377e-17 2.970117e+00)) ((-4.149685e-13 -7.552230e+04 -5.759807e-13) (-1.384117e-17 1.056073e+01 9.314890e-17))
0.000118941   	((1.020650e+03 -1.872135e-13 1.055863e+05) (1.210882e+01 -9.794112e-18 2.871366e+00)) ((-3.727266e-13 -4.875148e+04 -3.705378e-13) (-1.332608e-17 1.068364e+01 9.211217e-17))
0.000154634   	((7.058388e+02 -1.264408e-13 7.836292e+04) (1.225110e+01 -8.814185e-18 2.780105e+00)) ((-2.854485e-13 -3.597715e+04 -2.709033e-13) (-1.289040e-17 1.087058e+01 9.111256e-17))
0.000197405   	((1.185229e+03 -9.832490e-14 6.391878e+04) (1.259813e+01 -8.138438e-18 2.742374e+00)) ((-1.984978e-13 -2.876846e+04 -2.271197e-13) (-1.282211e-17 1.123047e+01 9.343794e-17))
0.000248707   	((1.705466e+03 -5.157309e-14 5.179090e+04) (1.313254e+01 -7.476219e-18 2.732011e+00)) ((-1.922064e-13 -2.198717e+04 -1.822780e-13) (-1.238575e-17 1.176860e+01 9.675834e-17))
0.000310237   	((1.107148e+03 -4.823900e-14 3.994673e+04) (1.387243e+01 -6.597960e-18 2.742473e+00)) ((-1.187438e-13 -1.756854e+04 -1.405679e-13) (-1.229156e-17 1.250535e+01 1.016069e-16))
0.000383982   	((1.585901e+03 -1.978896e-14 3.433608e+04) (1.489380e+01 -5.646999e-18 2.803497e+00)) ((-1.202008e-13 -1.403762e+04 -1.198751e-13) (-1.213458e-17 1.351175e+01 1.076600e-16))
0.000472342   	((1.030374e+03 -1.663765e-14 2.630806e+04) (1.623343e+01 -4.466164e-18 2.890880e+00)) ((-8.264449e-14 -1.118430e+04 -9.003333e-14) (-1.204049e-17 1.482539e+01 1.139656e-16))
0.000577897   	((1.187878e+03 -6.744601e-15 2.403793e+04) (1.780549e+01 -3.130893e-18 3.032098e+00)) ((-7.634884e-14 -9.656436e+03 -8.160258e-14) (-1.197714e-17 1.636982e+01 1.214403e-16))
0.000704014   	((1.143623e+03 -2.177925e-15 2.065423e+04) (1.950005e+01 -1.961370e-18 3.238965e+00)) ((-6.387915e-14 -8.406091e+03 -7.156681e-14) (-1.118622e-17 1.803830e+01 1.328644e-16))
0.000854764   	((8.550327e+02 2.885872e-15 1.746924e+04) (2.124716e+01 -1.728364e-18 3.403725e+00)) ((-5.436979e-14 -7.075670e+03 -5.700538e-14) (-9.390755e-18 1.976405e+01 1.456788e-16))
0.00103041    	((1.378200e+03 6.634832e-15 1.776545e+04) (2.293807e+01 -2.137364e-18 3.581285e+00)) ((-4.569224e-14 -6.753635e+03 -6.145205e-14) (-9.527374e-18 2.143656e+01 1.586524e-16))
0.00123221    	((5.136718e+01 -2.728364e-15 1.425353e+04) (2.432214e+01 -2.737044e-18 3.652491e+00)) ((-3.020917e-14 -6.680791e+03 -4.437710e-14) (-8.381209e-18 2.281256e+01 1.713179e-16))
0.00145564    	((-2.173895e+02 -4.946081e-14 2.327485e+04) (2.545243e+01 -3.055190e-18 3.722704e+00)) ((2.421869e-14 -1.218347e+04 -9.115150e-14) (-4.755060e-18 2.394416e+01 1.827544e-16))
0.00165721    	((4.279745e+02 1.740072e-14 1.160310e+04) (2.618840e+01 -3.112887e-18 3.744950e+00)) ((-4.327210e-14 -4.527844e+03 -3.137101e-14) (7.615761e-19 2.469629e+01 1.920585e-16))
0.00185234    	((5.647971e+02 2.037829e-14 1.085087e+04) (2.674966e+01 -3.063688e-18 3.788120e+00)) ((-3.950654e-14 -4.158529e+03 -3.030493e-14) (4.273325e-18 2.528288e+01 2.021578e-16))
0.00204337    	((4.614670e+02 2.372878e-14 9.556741e+03) (2.728257e+01 -3.453533e-18 3.806491e+00)) ((-4.596038e-14 -3.548066e+03 -2.515728e-14) (1.508195e-20 2.585530e+01 2.108607e-16))
0.00213641    	((7.019695e+02 1.218093e-14 1.235330e+04) (2.759564e+01 -3.039851e-18 3.841531e+00)) ((-4.999819e-14 -4.638929e+03 -4.055441e-14) (-2.689688e-18 2.619042e+01 2.188720e-16))
0.0022335     	((8.728428e+02 1.616633e-14 1.138706e+04) (2.796249e+01 -3.406770e-18 3.846303e+00)) ((-4.968218e-14 -4.142702e+03 -4.008091e-14) (-3.098398e-18 2.658630e+01 2.356950e-16))
0.00233165    	((1.027960e+03 2.308254e-14 1.135328e+04) (2.843122e+01 -2.819092e-18 3.848633e+00)) ((-5.370647e-14 -3.848237e+03 -3.722452e-14) (-8.564908e-18 2.708870e+01 2.487271e-16))
0.00243036    	((1.138096e+03 1.846777e-14 1.203925e+04) (2.900218e+01 -3.307543e-18 3.714584e+00)) ((-4.202302e-14 -4.109996e+03 -3.941104e-14) (-1.209563e-17 2.770371e+01 2.573295e-16))
0.00253019    	((2.459290e+03 1.077830e-15 1.435003e+04) (2.963014e+01 -1.095582e-18 3.603261e+00)) ((-3.413073e-14 -4.273917e+03 -6.546501e-14) (-7.927633e-18 2.836539e+01 2.856458e-16))
0.00263001    	((1.359957e+04 4.154842e-14 3.084716e+04) (2.994013e+01 -1.881594e-18 3.894447e+00)) ((-2.536341e-14 -2.341684e+03 -1.484747e-13) (-1.121541e-17 2.868657e+01 2.683865e-16))
0.00272871    	((1.100820e+02 1.547338e-14 8.944879e+03) (2.998628e+01 -1.381941e-18 3.684469e+00)) ((-3.407771e-14 -3.895433e+03 -2.131131e-14) (-4.579183e-18 2.877103e+01 2.732648e-16))
0.0028309     	((2.021272e+02 1.844312e-14 7.439094e+03) (2.998871e+01 -1.421616e-18 3.641992e+00)) ((-7.763589e-15 -3.179325e+03 -1.412953e-14) (-8.915961e-18 2.878977e+01 2.794371e-16))
0.00293496    	((1.672672e+02 1.515177e-14 7.363460e+03) (2.994444e+01 -1.244017e-18 3.512288e+00)) ((-1.902551e-14 -3.152197e+03 -1.654534e-14) (-7.168033e-18 2.877179e+01 2.830241e-16))
0.0030403     	((1.363395e+02 1.310926e-14 7.555249e+03) (2.987159e+01 -7.869369e-19 3.381147e+00)) ((-1.220099e-14 -3.360913e+03 -1.796007e-14) (-5.164049e-18 2.872473e+01 2.853197e-16))
0.00314696    	((2.161865e+02 9.845033e-15 7.033870e+03) (2.992771e+01 -2.389377e-18 3.318699e+00)) ((2.450040e-14 -3.295401e+03 -1.565257e-14) (-3.820459e-18 2.880464e+01 2.905391e-16))
0.00325431    	((1.996613e+02 7.868961e-15 6.727411e+03) (2.989644e+01 -1.938557e-18 3.213859e+00)) ((-9.863810e-15 -2.853592e+03 -1.658495e-14) (4.267929e-19 2.880050e+01 2.915296e-16))
0.00336376    	((2.047717e+02 1.260402e-14 6.273008e+03) (2.982738e+01 -1.418018e-18 3.109426e+00)) ((-9.196455e-15 -2.617142e+03 -1.372059e-14) (4.091220e-18 2.875790e+01 2.917019e-16))
0.00347616    	((8.692430e+01 -6.897399e-16 8.333404e+03) (2.973581e+01 -1.814170e-18 3.104020e+00)) ((1.887851e-14 -4.155331e+03 -2.464074e-14) (4.293002e-18 2.867844e+01 2.912508e-16))
0.00358781    	((3.868524e+02 7.748365e-15 5.345762e+03) (2.974640e+01 -9.441701e-19 3.051476e+00)) ((3.960409e-14 -2.298920e+03 -9.965365e-15) (5.819757e-18 2.871378e+01 2.954507e-16))
0.00370258    	((1.276205e+02 1.166286e-14 7.240475e+03) (2.965612e+01 -1.052805e-18 2.975108e+00)) ((-4.189754e-15 -3.340788e+03 -1.819206e-14) (8.078270e-18 2.864983e+01 2.948306e-16))
0.00381735    	((-2.535167e+02 -2.772185e-14 1.424035e+04) (2.957018e+01 -1.022569e-18 2.885216e+00)) ((3.089991e-14 -7.848833e+03 -5.418883e-14) (1.000255e-17 2.858833e+01 2.935288e-16))
0.00392176    	((3.149282e+02 3.302651e-14 5.046568e+03) (2.952067e+01 -1.073369e-18 2.853591e+00)) ((-1.503524e-14 -1.927077e+03 -6.493634e-15) (9.870289e-18 2.856475e+01 2.950407e-16))
0.00402895    	((4.294924e+02 2.702465e-14 6.152753e+03) (2.950097e+01 -4.675185e-19 2.805964e+00)) ((-7.992199e-15 -2.213960e+03 -1.136331e-14) (9.639383e-18 2.857316e+01 2.978487e-16))
0.00413909    	((2.668245e+02 2.224417e-14 4.770041e+03) (2.947856e+01 -5.330670e-19 2.712539e+00)) ((-5.871548e-15 -1.829843e+03 -6.800889e-15) (1.153840e-17 2.858270e+01 3.062392e-16))
0.0042532     	((3.144281e+02 2.281492e-14 4.387308e+03) (2.937789e+01 -8.406029e-19 2.672658e+00)) ((3.319318e-16 -1.721911e+03 -5.737333e-15) (1.224553e-17 2.849627e+01 3.134429e-16))
0.00437249    	((3.752085e+02 2.733092e-14 3.667968e+03) (2.921325e+01 -2.514841e-19 2.703474e+00)) ((1.834233e-14 -1.442692e+03 -1.456173e-15) (1.019182e-17 2.832601e+01 3.243992e-16))
0.00450493    	((4.040513e+02 3.922991e-14 3.411427e+03) (2.876278e+01 -1.054607e-18 2.704809e+00)) ((-5.057286e-16 -1.334713e+03 -9.762080e-16) (1.765351e-17 2.785394e+01 3.768450e-16))
0.00465392    	((2.102633e+02 2.566817e-14 4.422297e+03) (2.759164e+01 -2.028117e-18 2.698421e+00)) ((-1.383154e-14 -1.703485e+03 -5.574057e-15) (2.676029e-17 2.663214e+01 4.797934e-16))
0.00482443    	((1.750169e+02 2.303875e-14 4.533847e+03) (2.716998e+01 -1.868240e-18 2.621949e+00)) ((-1.015250e-14 -1.866463e+03 -6.921241e-15) (3.245717e-17 2.619492e+01 4.873673e-16))
0.00501413    	((2.975402e+02 2.611701e-14 3.740104e+03) (2.710510e+01 -2.695850e-18 2.342220e+00)) ((-7.725486e-15 -1.413169e+03 -4.236050e-15) (7.485770e-18 2.636217e+01 4.410179e-16))
0.00519043    	((2.985606e+02 2.753632e-14 4.194994e+03) (2.732395e+01 -2.858459e-18 2.119377e+00)) ((4.469669e-15 -1.850117e+03 -6.719881e-15) (-7.381545e-18 2.675267e+01 3.795551e-16))
0.00538529    	((2.171497e+02 2.552280e-14 4.045238e+03) (2.760774e+01 -3.056752e-18 1.870894e+00)) ((-8.543606e-15 -1.597740e+03 -5.200913e-15) (-1.706522e-17 2.718088e+01 3.103576e-16))
0.00558549    	((2.712763e+02 2.981008e-14 3.627474e+03) (2.777374e+01 -3.417178e-18 1.678235e+00)) ((3.652667e-15 -1.484058e+03 -2.671467e-15) (-2.504763e-17 2.747370e+01 2.526262e-16))
0.00579142    	((1.747883e+02 2.962876e-14 4.214440e+03) (2.782837e+01 -4.354967e-18 1.479185e+00)) ((-9.241856e-15 -1.765078e+03 -5.200310e-15) (-2.103827e-17 2.764450e+01 2.083477e-16))
0.0059944     	((1.565582e+02 2.597969e-14 4.878321e+03) (2.787621e+01 -5.305246e-18 1.257173e+00)) ((-2.354437e-15 -2.224917e+03 -8.965412e-15) (-1.002591e-17 2.780216e+01 1.774790e-16))
0.00619166    	((2.370895e+02 2.793020e-14 3.486772e+03) (2.783965e+01 -6.682142e-18 9.997336e-01)) ((-7.468607e-15 -1.309374e+03 -3.003530e-15) (-6.807851e-19 2.792295e+01 1.606939e-16))
0.00637099    	((2.701525e+02 3.374923e-14 3.259042e+03) (2.775778e+01 -8.348551e-18 8.295158e-01)) ((-1.554963e-15 -1.275324e+03 -9.744351e-16) (1.314738e-17 2.796330e+01 1.534553e-16))
0.00654799    	((1.684016e+02 2.374833e-14 4.008753e+03) (2.767138e+01 -9.372308e-18 6.733680e-01)) ((-1.080578e-14 -1.599911e+03 -5.477274e-15) (2.428551e-17 2.797383e+01 1.453644e-16))
0.00672977    	((1.756354e+02 2.976219e-14 3.850788e+03) (2.765791e+01 -8.828058e-18 5.447802e-01)) ((-3.650615e-14 -1.598078e+03 -5.644671e-15) (3.734740e-17 2.800436e+01 1.366803e-16))
0.00691668    	((1.927663e+02 3.096483e-14 3.505481e+03) (2.762504e+01 -8.392660e-18 4.860123e-01)) ((-1.685559e-14 -1.368871e+03 -2.728475e-15) (5.673913e-17 2.793363e+01 1.214261e-16))
0.00708229    	((1.908951e+02 2.745991e-14 3.548317e+03) (2.757162e+01 -7.982197e-18 4.278657e-01)) ((-1.085255e-14 -1.375833e+03 -3.224689e-15) (7.349737e-17 2.785710e+01 1.101473e-16))
0.00723792    	((2.439810e+02 3.479609e-14 3.162346e+03) (2.747577e+01 -8.319263e-18 3.993123e-01)) ((-3.584281e-15 -1.271324e+03 -5.260066e-16) (8.152556e-17 2.777423e+01 9.694599e-17))
0.00739356    	((1.710152e+02 2.474096e-14 3.609766e+03) (2.732891e+01 -8.575460e-18 3.557731e-01)) ((-9.642913e-15 -1.385833e+03 -3.673593e-15) (8.831693e-17 2.766430e+01 8.347628e-17))
0.00755728    	((1.677339e+02 2.507833e-14 3.520138e+03) (2.721080e+01 -7.649739e-18 2.713230e-01)) ((-1.005923e-14 -1.345625e+03 -3.281974e-15) (9.535509e-17 2.760828e+01 7.237271e-17))
0.00773253    	((1.792502e+02 2.497965e-14 3.331749e+03) (2.713440e+01 -8.144979e-18 1.359380e-01)) ((-6.626549e-15 -1.281423e+03 -2.927554e-15) (1.043287e-16 2.761717e+01 6.223892e-17))
0.00791293    	((1.950709e+02 2.539623e-14 3.142451e+03) (2.718308e+01 -8.508254e-18 -6.058527e-02)) ((-4.332226e-15 -1.241378e+03 -2.697182e-15) (1.131876e-16 2.777942e+01 5.288945e-17))
0.00807409    	((2.118572e+02 3.423793e-14 3.120219e+03) (2.718093e+01 -9.279631e-18 -2.144947e-01)) ((-6.472137e-15 -1.264194e+03 -5.501588e-16) (1.197643e-16 2.787098e+01 4.277745e-17))
0.00822699    	((1.630490e+02 2.504002e-14 3.439051e+03) (2.716480e+01 -9.918006e-18 -3.501451e-01)) ((-8.540333e-15 -1.320069e+03 -2.915451e-15) (1.268158e-16 2.794122e+01 3.743161e-17))
0.00837601    	((1.613983e+02 2.508776e-14 3.401450e+03) (2.709995e+01 -1.023215e-17 -4.209081e-01)) ((-8.571778e-15 -1.303544e+03 -2.779171e-15) (1.357018e-16 2.794139e+01 3.535238e-17))
0.00851952    	((1.640280e+02 2.571079e-14 3.357398e+03) (2.701372e+01 -9.839529e-18 -4.667739e-01)) ((-8.075499e-15 -1.289113e+03 -2.523303e-15) (1.442523e-16 2.790881e+01 3.529324e-17))
0.00864297    	((1.626958e+02 2.518147e-14 3.418244e+03) (2.696885e+01 -9.787833e-18 -5.152913e-01)) ((-8.537110e-15 -1.316466e+03 -2.894828e-15) (1.512098e-16 2.791098e+01 3.461188e-17))
0.00875768    	((1.695040e+02 2.682916e-14 3.334056e+03) (2.695377e+01 -9.946791e-18 -5.721293e-01)) ((-1.038403e-14 -1.295655e+03 -2.519613e-15) (1.572013e-16 2.793831e+01 3.360785e-17))
0.00886683    	((1.630749e+02 2.535700e-14 3.371278e+03) (2.697770e+01 -1.162946e-17 -6.593516e-01)) ((-9.115947e-15 -1.304932e+03 -2.815060e-15) (1.635890e-16 2.801060e+01 3.329874e-17))
0.00896992    	((2.553387e+02 2.953552e-14 2.393000e+03) (2.712651e+01 -1.406576e-17 -7.526175e-01)) ((-9.463132e-15 -1.046190e+03 -1.509231e-15) (1.707297e-16 2.821442e+01 2.578867e-17))
0.0090684     	((1.597950e+02 2.560214e-14 3.398096e+03) (2.719158e+01 -1.592504e-17 -8.438635e-01)) ((-9.144085e-15 -1.306957e+03 -2.660635e-15) (1.773158e-16 2.832754e+01 2.660570e-17))
0.00917882    	((1.597104e+02 2.585334e-14 3.301504e+03) (2.726630e+01 -1.807011e-17 -9.438878e-01)) ((-8.847625e-15 -1.263754e+03 -2.297818e-15) (1.851312e-16 2.845822e+01 2.827526e-17))
0.00930041    	((1.603302e+02 2.597953e-14 3.254332e+03) (2.732338e+01 -1.917225e-17 -1.021304e+00)) ((-8.762796e-15 -1.241215e+03 -2.120252e-15) (1.928434e-16 2.857257e+01 2.978094e-17))
0.00942339    	((1.601165e+02 2.616035e-14 3.206312e+03) (2.738005e+01 -1.908206e-17 -1.060895e+00)) ((-8.783178e-15 -1.222535e+03 -1.958255e-15) (2.001748e-16 2.868062e+01 3.381771e-17))
0.00954358    	((1.677520e+02 2.637872e-14 3.101653e+03) (2.739834e+01 -1.802938e-17 -1.048297e+00)) ((-9.177521e-15 -1.193516e+03 -1.882191e-15) (2.066799e-16 2.873502e+01 3.914531e-17))
0.00965976    	((1.597061e+02 2.608095e-14 3.177271e+03) (2.739786e+01 -1.666437e-17 -1.001454e+00)) ((-9.225556e-15 -1.211015e+03 -1.955204e-15) (2.100542e-16 2.875443e+01 4.339246e-17))
0.00977339    	((1.592452e+02 2.604628e-14 3.182371e+03) (2.741924e+01 -1.765255e-17 -9.639559e-01)) ((-8.932398e-15 -1.211277e+03 -1.919661e-15) (2.142093e-16 2.879993e+01 4.671160e-17))
0.00988577    	((1.574435e+02 2.603702e-14 3.163940e+03) (2.746676e+01 -1.874408e-17 -9.328498e-01)) ((-8.927343e-15 -1.201575e+03 -1.819985e-15) (2.173225e-16 2.887549e+01 4.707411e-17))
0.00999571    	((1.596090e+02 2.619048e-14 3.161738e+03) (2.748058e+01 -1.953994e-17 -9.094540e-01)) ((-8.887241e-15 -1.202428e+03 -1.801220e-15) (2.202973e-16 2.891785e+01 5.165613e-17))
0.0101045     	((1.588325e+02 2.632114e-14 3.140446e+03) (2.754064e+01 -1.983277e-17 -9.081880e-01)) ((-9.272036e-15 -1.192859e+03 -1.702625e-15) (2.221867e-16 2.901513e+01 5.108116e-17))
0.0102109     	((2.125523e+02 3.399425e-14 2.429934e+03) (2.765159e+01 -2.089533e-17 -9.209094e-01)) ((-2.161935e-14 -1.005650e+03 1.566380e-16) (2.255739e-16 2.917037e+01 5.342531e-17))
0.0103161     	((1.803756e+02 2.934210e-14 2.853169e+03) (2.776133e+01 -2.206876e-17 -9.354447e-01)) ((-1.374896e-14 -1.118000e+03 -9.260847e-16) (2.292435e-16 2.932560e+01 5.376798e-17))
0.0104214     	((1.596310e+02 2.658317e-14 3.085573e+03) (2.782598e+01 -2.335219e-17 -9.487731e-01)) ((-9.078001e-15 -1.173967e+03 -1.487757e-15) (2.337581e-16 2.943296e+01 5.862588e-17))
0.0105255     	((1.579074e+02 2.650471e-14 3.080818e+03) (2.793332e+01 -2.380831e-17 -9.593815e-01)) ((-9.016999e-15 -1.169871e+03 -1.456791e-15) (2.366699e-16 2.958433e+01 5.662537e-17))
0.0106296     	((1.589549e+02 2.652639e-14 3.078902e+03) (2.796137e+01 -2.405099e-17 -9.481042e-01)) ((-8.788024e-15 -1.169329e+03 -1.451643e-15) (2.394729e-16 2.964467e+01 5.876331e-17))
0.0107337     	((1.586100e+02 2.655334e-14 3.061457e+03) (2.799612e+01 -2.424294e-17 -9.147886e-01)) ((-8.804460e-15 -1.160404e+03 -1.382818e-15) (2.412826e-16 2.970553e+01 5.642771e-17))
0.0108378     	((1.574207e+02 2.654044e-14 3.039512e+03) (2.796239e+01 -2.480444e-17 -8.738276e-01)) ((-8.798472e-15 -1.148626e+03 -1.292182e-15) (2.432135e-16 2.968747e+01 5.432589e-17))
0.0109431     	((1.565916e+02 2.653773e-14 3.019924e+03) (2.791976e+01 -2.557650e-17 -8.459086e-01)) ((-8.769775e-15 -1.137882e+03 -1.212742e-15) (2.448768e-16 2.965794e+01 5.025431e-17))
0.0110497     	((1.562287e+02 2.658430e-14 3.001728e+03) (2.788281e+01 -2.580970e-17 -8.542284e-01)) ((-8.840879e-15 -1.128414e+03 -1.135691e-15) (2.462394e-16 2.963904e+01 4.783158e-17))
0.0111575     	((1.566281e+02 2.662522e-14 2.987551e+03) (2.785217e+01 -2.580923e-17 -8.893109e-01)) ((-8.761732e-15 -1.119946e+03 -1.067602e-15) (2.472805e-16 2.963020e+01 4.373122e-17))
0.0112695     	((1.572611e+02 2.671030e-14 2.971066e+03) (2.780036e+01 -2.545641e-17 -9.785305e-01)) ((-8.746441e-15 -1.112762e+03 -1.001371e-15) (2.491171e-16 2.960288e+01 4.002996e-17))
0.0113859     	((1.569071e+02 2.666756e-14 2.975553e+03) (2.774153e+01 -2.468348e-17 -1.139426e+00)) ((-8.585384e-15 -1.115147e+03 -1.009645e-15) (2.524846e-16 2.957385e+01 3.670909e-17))
0.0115089     	((1.559766e+02 2.674647e-14 2.931896e+03) (2.769098e+01 -2.348537e-17 -1.322457e+00)) ((-8.662392e-15 -1.091933e+03 -8.180612e-16) (2.554043e-16 2.956033e+01 3.192107e-17))
0.0116437     	((1.564998e+02 2.691315e-14 2.874302e+03) (2.759808e+01 -2.178092e-17 -1.505164e+00)) ((-8.674069e-15 -1.065676e+03 -6.228493e-16) (2.575073e-16 2.950886e+01 3.293875e-17))
0.0117929     	((1.954130e+02 3.153240e-14 2.240293e+03) (2.763519e+01 -2.019241e-17 -1.685253e+00)) ((-1.258947e-14 -8.867080e+02 6.367530e-16) (2.570624e-16 2.960447e+01 3.322371e-17))
0.0119478     	((1.565663e+02 2.697299e-14 2.838954e+03) (2.755956e+01 -2.011475e-17 -1.815223e+00)) ((-8.616862e-15 -1.041578e+03 -4.113727e-16) (2.568405e-16 2.958206e+01 3.425635e-17))
0.0120969     	((1.571127e+02 2.702055e-14 2.839356e+03) (2.750595e+01 -2.053369e-17 -1.912399e+00)) ((-8.595383e-15 -1.042555e+03 -4.161886e-16) (2.554157e-16 2.957799e+01 2.654958e-17))
0.0122432     	((1.567979e+02 2.701607e-14 2.839129e+03) (2.743963e+01 -2.020428e-17 -1.986411e+00)) ((-8.589741e-15 -1.042674e+03 -4.111407e-16) (2.507454e-16 2.955249e+01 1.650821e-17))
0.0123896     	((1.574786e+02 2.721600e-14 2.802290e+03) (2.739401e+01 -2.069411e-17 -2.035860e+00)) ((-8.867969e-15 -1.028383e+03 -2.938654e-16) (2.447624e-16 2.953956e+01 7.561777e-18))
0.012536      	((1.585068e+02 2.730350e-14 2.790305e+03) (2.734162e+01 -1.979027e-17 -2.051241e+00)) ((-8.730448e-15 -1.029174e+03 -3.164433e-16) (2.363278e-16 2.950814e+01 -4.653947e-18))
0.0126883     	((1.585064e+02 2.747003e-14 2.736618e+03) (2.727447e+01 -2.066926e-17 -2.033599e+00)) ((-8.915065e-15 -1.005906e+03 -1.367432e-16) (2.313967e-16 2.945430e+01 -2.394144e-17))
0.0128508     	((1.559481e+02 2.724784e-14 2.759821e+03) (2.728092e+01 -2.138200e-17 -2.006328e+00)) ((-8.659231e-15 -1.009885e+03 -1.253516e-16) (2.305402e-16 2.948187e+01 -3.797889e-17))
0.0130132     	((1.562033e+02 2.731177e-14 2.761021e+03) (2.731899e+01 -2.228631e-17 -1.943896e+00)) ((-8.791822e-15 -1.009225e+03 -1.002281e-16) (2.343427e-16 2.954371e+01 -5.634082e-17))
0.0131757     	((1.535706e+02 2.718380e-14 2.766175e+03) (2.750030e+01 -2.153202e-17 -1.815957e+00)) ((-8.727977e-15 -1.017059e+03 -1.394839e-16) (2.427378e-16 2.975885e+01 -8.364617e-17))
0.0133308     	((1.418484e+02 2.617388e-14 2.939592e+03) (2.769766e+01 -2.057320e-17 -1.567295e+00)) ((-7.466569e-15 -1.142974e+03 -1.037373e-15) (2.620178e-16 2.998678e+01 -1.040198e-16))
0.013479      	((1.498393e+02 2.693982e-14 2.820916e+03) (2.798988e+01 -1.989559e-17 -1.157519e+00)) ((-8.577684e-15 -1.054206e+03 -3.915652e-16) (2.952568e-16 3.030910e+01 -1.330676e-16))
0.0136208     	((1.517256e+02 2.699137e-14 2.819432e+03) (2.836321e+01 -1.950991e-17 -5.728748e-01)) ((-8.417963e-15 -1.052212e+03 -4.081943e-16) (3.441629e-16 3.070918e+01 -1.631933e-16))
0.0137565     	((1.811984e+02 2.705668e-14 2.195916e+03) (2.885767e+01 -1.940978e-17 1.774708e-01)) ((1.813995e-15 -8.690552e+02 -3.343352e-16) (4.074329e-16 3.122864e+01 -2.041811e-16))
0.0138894     	((1.532090e+02 2.722579e-14 2.785179e+03) (2.932963e+01 -1.941303e-17 1.085948e+00)) ((-8.962916e-15 -1.027476e+03 -1.847215e-16) (4.855591e-16 3.171390e+01 -2.396963e-16))
0.0140167     	((1.529628e+02 2.724385e-14 2.763274e+03) (2.977728e+01 -1.951201e-17 2.084823e+00)) ((-8.976560e-15 -1.015912e+03 -9.997595e-17) (5.719837e-16 3.216490e+01 -2.737803e-16))
0.0141413     	((1.559094e+02 2.727143e-14 2.694775e+03) (3.016450e+01 -1.979342e-17 3.147183e+00)) ((-7.982919e-15 -9.930377e+02 -5.596178e-17) (6.632402e-16 3.254162e+01 -3.093098e-16))
0.0142634     	((1.538236e+02 2.728428e-14 2.731783e+03) (3.051702e+01 -2.011738e-17 4.225185e+00)) ((-8.806180e-15 -1.001790e+03 -3.202917e-17) (7.564018e-16 3.287481e+01 -3.342165e-16))
0.0143829     	((1.535256e+02 2.732403e-14 2.716255e+03) (3.078263e+01 -2.049950e-17 5.245928e+00)) ((-8.849028e-15 -9.942594e+02 2.390916e-17) (8.460628e-16 3.311265e+01 -3.537705e-16))
0.0144999     	((1.543573e+02 2.737060e-14 2.734896e+03) (3.099739e+01 -2.059953e-17 6.155454e+00)) ((-8.876549e-15 -1.004167e+03 -5.286487e-17) (9.280882e-16 3.329696e+01 -3.680460e-16))
0.0146145     	((1.539854e+02 2.744430e-14 2.717250e+03) (3.121992e+01 -2.042982e-17 6.920799e+00)) ((-9.028069e-15 -9.925221e+02 6.838058e-17) (1.001482e-15 3.350000e+01 -3.745519e-16))
0.0147267     	((1.538325e+02 2.749905e-14 2.701459e+03) (3.143329e+01 -1.957996e-17 7.554654e+00)) ((-9.065238e-15 -9.840788e+02 1.495461e-16) (1.064529e-15 3.370192e+01 -3.848505e-16))
0.0148366     	((1.537090e+02 2.752405e-14 2.706467e+03) (3.160986e+01 -1.877157e-17 8.117018e+00)) ((-9.087313e-15 -9.871182e+02 1.438386e-16) (1.122824e-15 3.386961e+01 -3.883096e-16))
0.0149441     	((1.530046e+02 2.750679e-14 2.698771e+03) (3.181381e+01 -1.922820e-17 8.614421e+00)) ((-9.121716e-15 -9.826141e+02 1.925222e-16) (1.177881e-15 3.407231e+01 -3.877408e-16))
0.0150517     	((1.527426e+02 2.752251e-14 2.686298e+03) (3.199566e+01 -1.893959e-17 9.076872e+00)) ((-9.054123e-15 -9.783143e+02 2.286238e-16) (1.229967e-15 3.425565e+01 -3.896941e-16))
0.015157      	((1.525518e+02 2.753767e-14 2.684352e+03) (3.216745e+01 -1.814575e-17 9.475199e+00)) ((-9.160805e-15 -9.751757e+02 2.630454e-16) (1.276823e-15 3.443316e+01 -3.868819e-16))
0.0152623     	((1.539878e+02 2.767566e-14 2.682788e+03) (3.234192e+01 -1.716416e-17 9.838800e+00)) ((-9.181036e-15 -9.758208e+02 2.518645e-16) (1.321138e-15 3.461734e+01 -3.854530e-16))
0.0153653     	((1.526151e+02 2.756993e-14 2.676835e+03) (3.248871e+01 -1.601914e-17 1.014380e+01)) ((-9.235017e-15 -9.709368e+02 2.978564e-16) (1.360391e-15 3.477518e+01 -3.845157e-16))
0.0154683     	((1.528057e+02 2.761935e-14 2.664615e+03) (3.263314e+01 -1.475169e-17 1.041938e+01)) ((-9.269872e-15 -9.648275e+02 3.474786e-16) (1.397801e-15 3.493327e+01 -3.797535e-16))
0.015569      	((1.529572e+02 2.758495e-14 2.678262e+03) (3.277316e+01 -1.336796e-17 1.064121e+01)) ((-9.255667e-15 -9.731372e+02 2.714713e-16) (1.430573e-15 3.508874e+01 -3.749041e-16))
0.0156697     	((1.523721e+02 2.743764e-14 2.646564e+03) (3.289111e+01 -1.305920e-17 1.084683e+01)) ((-9.107250e-15 -9.597620e+02 3.212900e-16) (1.463214e-15 3.522068e+01 -3.705276e-16))
0.0157681     	((1.786753e+02 2.436116e-14 1.901534e+03) (3.308344e+01 -1.333926e-17 1.101210e+01)) ((2.188305e-16 -7.519330e+02 -8.588533e-16) (1.493089e-15 3.543046e+01 -3.761740e-16))
0.0158665     	((1.528473e+02 2.764434e-14 2.654007e+03) (3.318281e+01 -1.376239e-17 1.117998e+01)) ((-9.623748e-15 -9.599778e+02 3.992723e-16) (1.523191e-15 3.553709e+01 -3.667070e-16))
0.0159649     	((1.539998e+02 2.751255e-14 2.596950e+03) (3.328512e+01 -1.433931e-17 1.134786e+01)) ((-9.336705e-15 -9.401547e+02 4.113933e-16) (1.553071e-15 3.564159e+01 -3.572070e-16))
0.0160633     	((1.537525e+02 2.762396e-14 2.612546e+03) (3.333529e+01 -1.499081e-17 1.151393e+01)) ((-9.816707e-15 -9.441603e+02 4.465256e-16) (1.582048e-15 3.568560e+01 -3.448012e-16))
0.0161593     	((1.534286e+02 2.758159e-14 2.625676e+03) (3.338259e+01 -1.554169e-17 1.164136e+01)) ((-9.944090e-15 -9.530407e+02 3.727271e-16) (1.605431e-15 3.572521e+01 -3.296042e-16))
0.0162554     	((1.528163e+02 2.759755e-14 2.611491e+03) (3.342948e+01 -1.463158e-17 1.176965e+01)) ((-1.024803e-14 -9.422404e+02 4.799217e-16) (1.624662e-15 3.576188e+01 -3.163576e-16))
0.0163514     	((1.527957e+02 2.760986e-14 2.602047e+03) (3.347714e+01 -1.327916e-17 1.186863e+01)) ((-9.919977e-15 -9.355937e+02 5.349625e-16) (1.637734e-15 3.580424e+01 -3.021906e-16))
0.0164474     	((1.526484e+02 2.761831e-14 2.593806e+03) (3.352629e+01 -1.209470e-17 1.193781e+01)) ((-9.654969e-15 -9.300602e+02 5.828605e-16) (1.646547e-15 3.585233e+01 -2.933598e-16))
0.0165434     	((1.516144e+02 2.751959e-14 2.597865e+03) (3.358698e+01 -1.123335e-17 1.197968e+01)) ((-9.271499e-15 -9.375698e+02 5.161587e-16) (1.652895e-15 3.591610e+01 -2.821573e-16))
0.0166394     	((1.531801e+02 2.763220e-14 2.614602e+03) (3.364819e+01 -1.045193e-17 1.199693e+01)) ((-9.320877e-15 -9.443667e+02 4.610270e-16) (1.656889e-15 3.598312e+01 -2.759082e-16))
0.0167354     	((1.522914e+02 2.760932e-14 2.591295e+03) (3.372426e+01 -1.011575e-17 1.198877e+01)) ((-9.308353e-15 -9.289408e+02 6.061511e-16) (1.659654e-15 3.606885e+01 -2.662963e-16))
0.0168287     	((1.526060e+02 2.764517e-14 2.581401e+03) (3.378182e+01 -1.214625e-17 1.192907e+01)) ((-9.280730e-15 -9.236830e+02 6.458302e-16) (1.660728e-15 3.613786e+01 -2.607301e-16))
0.016922      	((1.494838e+02 2.733323e-14 2.629484e+03) (3.386174e+01 -1.402872e-17 1.186070e+01)) ((-8.758046e-15 -9.615811e+02 3.500026e-16) (1.661672e-15 3.623331e+01 -2.557673e-16))
0.0170153     	((1.349749e+02 2.608683e-14 2.816259e+03) (3.392376e+01 -1.575843e-17 1.177574e+01)) ((-7.160709e-15 -1.098947e+03 -6.197152e-16) (1.661620e-15 3.631200e+01 -2.491688e-16))
0.0171085     	((1.466218e+02 2.715646e-14 2.650186e+03) (3.398560e+01 -1.720458e-17 1.167131e+01)) ((-8.585065e-15 -9.767237e+02 2.842708e-16) (1.660116e-15 3.639257e+01 -2.443460e-16))
0.0172018     	((1.461875e+02 2.708981e-14 2.646829e+03) (3.404117e+01 -1.836495e-17 1.154808e+01)) ((-8.397568e-15 -9.787716e+02 2.442254e-16) (1.657145e-15 3.646793e+01 -2.374767e-16))
0.0172951     	((1.486500e+02 2.733587e-14 2.617498e+03) (3.410484e+01 -1.925552e-17 1.140739e+01)) ((-8.752538e-15 -9.547326e+02 4.328604e-16) (1.652589e-15 3.655302e+01 -2.320606e-16))
0.0173884     	((1.508546e+02 2.752261e-14 2.582977e+03) (3.415488e+01 -1.991483e-17 1.125300e+01)) ((-8.933011e-15 -9.307599e+02 6.005745e-16) (1.646462e-15 3.662373e+01 -2.253713e-16))
0.0174816     	((1.512139e+02 2.756706e-14 2.570105e+03) (3.419581e+01 -2.039399e-17 1.108406e+01)) ((-9.002529e-15 -9.217411e+02 6.701475e-16) (1.638596e-15 3.668456e+01 -2.199501e-16))
0.0175749     	((1.519670e+02 2.768444e-14 2.550354e+03) (3.423063e+01 -2.070183e-17 1.091004e+01)) ((-9.122293e-15 -9.088506e+02 7.806723e-16) (1.629673e-15 3.673776e+01 -2.133188e-16))
0.0176682     	((1.523515e+02 2.769337e-14 2.552405e+03) (3.425859e+01 -2.024432e-17 1.071985e+01)) ((-9.112014e-15 -9.117263e+02 7.403549e-16) (1.617202e-15 3.678124e+01 -2.080819e-16))
0.0177614     	((1.521030e+02 2.773350e-14 2.547432e+03) (3.427461e+01 -1.973740e-17 1.054943e+01)) ((-9.214834e-15 -9.081984e+02 7.919903e-16) (1.604632e-15 3.680729e+01 -2.013885e-16))
0.0178547     	((1.673007e+02 2.714200e-14 1.843284e+03) (3.429345e+01 -1.908523e-17 1.035188e+01)) ((-4.698799e-14 -7.023790e+02 5.615954e-16) (1.587382e-15 3.683299e+01 -1.963417e-16))
0.017948      	((1.539966e+02 2.778899e-14 2.449414e+03) (3.430387e+01 -1.812854e-17 1.023948e+01)) ((-1.376654e-14 -8.774823e+02 8.444114e-16) (1.574767e-15 3.684091e+01 -1.907590e-16))
0.0180457     	((1.527565e+02 2.793295e-14 2.491653e+03) (3.425701e+01 -1.667097e-17 1.034920e+01)) ((-1.009553e-14 -8.857430e+02 9.569593e-16) (1.577730e-15 3.677539e+01 -1.890877e-16))
0.0181434     	((1.521436e+02 2.797429e-14 2.493430e+03) (3.429051e+01 -1.445759e-17 1.045119e+01)) ((-9.738913e-15 -8.844667e+02 1.010562e-15) (1.578267e-15 3.678932e+01 -1.935960e-16))
0.0182363     	((1.519234e+02 2.791927e-14 2.503566e+03) (3.429033e+01 -1.249102e-17 1.050515e+01)) ((-9.670571e-15 -8.890060e+02 9.734031e-16) (1.575578e-15 3.677071e+01 -1.966785e-16))
0.0183291     	((1.515742e+02 2.779919e-14 2.504179e+03) (3.427869e+01 -1.115315e-17 1.055641e+01)) ((-9.567941e-15 -8.898690e+02 9.420900e-16) (1.574712e-15 3.674417e+01 -1.971195e-16))
0.0184219     	((1.522686e+02 2.778162e-14 2.492506e+03) (3.426321e+01 -1.038973e-17 1.056328e+01)) ((-9.774898e-15 -8.839038e+02 9.517892e-16) (1.571765e-15 3.671815e+01 -1.956580e-16))
0.0185147     	((1.523679e+02 2.774089e-14 2.506683e+03) (3.423289e+01 -1.000805e-17 1.058819e+01)) ((-9.582922e-15 -8.905165e+02 8.934098e-16) (1.571555e-15 3.667815e+01 -1.922183e-16))
0.0186076     	((1.518769e+02 2.768788e-14 2.510470e+03) (3.420491e+01 -1.028608e-17 1.063198e+01)) ((-9.483522e-15 -8.921404e+02 8.837393e-16) (1.574185e-15 3.664127e+01 -1.867222e-16))
0.0187004     	((1.518449e+02 2.768206e-14 2.505978e+03) (3.418892e+01 -1.062943e-17 1.059755e+01)) ((-9.481649e-15 -8.893320e+02 9.034186e-16) (1.570829e-15 3.662151e+01 -1.825820e-16))