# Forces      
# CofR        : (0.000000e+00 0.000000e+00 -1.000000e+00)
# Time        forces(pressure viscous)	moments(pressure viscous)
0             	((1.136868e-13 6.764460e-14 3.410605e-13) (1.147060e+01 -1.919480e-17 6.345363e+00)) ((-2.248934e-14 1.136868e-13 2.716866e-14) (-2.864757e-17 8.349024e+00 7.255936e-17))
1.19976e-05   	((-2.209001e+04 -1.303853e-11 6.983061e+06) (1.141575e+01 -1.811287e-17 5.212724e+00)) ((-2.328876e-11 -3.231963e+06 -2.440019e-11) (-2.127850e-17 8.895727e+00 8.501314e-17))
2.63878e-05   	((-2.772771e+04 -3.229440e-12 9.251317e+05) (1.119886e+01 -1.726253e-17 4.778956e+00)) ((-7.334279e-13 -5.165918e+05 -3.719951e-12) (-1.892463e-17 8.881696e+00 9.199252e-17))
4.36511e-05   	((-1.659499e+04 -1.847783e-12 5.253223e+05) (1.100270e+01 -1.614905e-17 4.506892e+00)) ((-4.501930e-13 -2.962459e+05 -2.109848e-12) (-1.679661e-17 8.818192e+00 9.759950e-17))
6.43527e-05   	((-8.778606e+03 -1.028238e-12 3.218916e+05) (1.087545e+01 -1.503630e-17 4.283635e+00)) ((-5.821580e-13 -1.760900e+05 -1.241659e-12) (-1.505470e-17 8.805166e+00 9.851359e-17))
8.91792e-05   	((-4.832777e+03 -6.423542e-13 2.117589e+05) (1.078844e+01 -1.380463e-17 4.076370e+00)) ((-4.468074e-13 -1.136205e+05 -8.081660e-13) (-1.358410e-17 8.825585e+00 9.742509e-17))
0.000118941   	((-3.916736e+03 -5.123388e-13 1.627209e+05) (1.085062e+01 -1.299785e-17 3.947835e+00)) ((-2.601144e-13 -8.835561e+04 -6.305295e-13) (-1.281814e-17 8.948313e+00 9.866807e-17))
0.000154634   	((-4.159134e+03 -5.351295e-13 1.467166e+05) (1.110001e+01 -1.251751e-17 3.915244e+00)) ((2.504970e-15 -8.313402e+04 -6.063972e-13) (-1.228392e-17 9.215886e+00 1.039553e-16))
0.000197405   	((-1.126080e+03 -2.219711e-13 8.371188e+04) (1.146814e+01 -1.187649e-17 3.892347e+00)) ((-1.779146e-13 -4.346953e+04 -3.133166e-13) (-1.190352e-17 9.599892e+00 1.079995e-16))
0.000248707   	((-5.794000e+02 -1.558760e-13 6.309230e+04) (1.195899e+01 -1.098882e-17 3.880538e+00)) ((-1.320622e-13 -3.226154e+04 -2.348235e-13) (-1.149698e-17 1.010337e+01 1.127474e-16))
0.000310237   	((1.762591e+02 -1.126148e-13 5.189315e+04) (1.261942e+01 -9.809100e-18 3.885963e+00)) ((-9.910319e-14 -2.535188e+04 -1.942252e-13) (-1.100107e-17 1.077242e+01 1.187464e-16))
0.000383982   	((4.962437e+02 -6.859123e-14 4.154882e+04) (1.351942e+01 -8.246854e-18 3.912930e+00)) ((-1.022043e-13 -1.926830e+04 -1.491176e-13) (-1.039479e-17 1.167739e+01 1.247692e-16))
0.000472342   	((3.429668e+02 -4.550525e-14 3.280451e+04) (1.468638e+01 -6.221372e-18 3.970579e+00)) ((-8.597942e-14 -1.516594e+04 -1.143067e-13) (-9.395823e-18 1.284750e+01 1.305783e-16))
0.000520798   	((1.953182e+03 -6.846817e-14 6.106079e+04) (1.542414e+01 -4.966685e-18 4.033115e+00)) ((-1.855927e-13 -2.519476e+04 -2.154911e-13) (-8.648999e-18 1.359648e+01 1.330344e-16))
0.000569374   	((1.159746e+03 -6.439598e-14 4.395788e+04) (1.616293e+01 -3.673422e-18 4.091476e+00)) ((-1.047997e-13 -1.931895e+04 -1.587446e-13) (-8.024080e-18 1.435194e+01 1.357435e-16))
0.000618195   	((1.855826e+03 -4.956058e-14 4.677409e+04) (1.691367e+01 -2.373817e-18 4.167893e+00)) ((-1.220902e-13 -1.901384e+04 -1.678198e-13) (-7.550479e-18 1.512329e+01 1.386882e-16))
0.000667387   	((1.930929e+03 -5.430480e-14 5.365571e+04) (1.767331e+01 -1.705377e-18 4.260815e+00)) ((-1.501463e-13 -2.178745e+04 -1.901805e-13) (-6.920402e-18 1.590398e+01 1.409637e-16))
0.000716831   	((1.317470e+03 -3.951901e-14 3.416005e+04) (1.840405e+01 -1.498916e-18 4.355442e+00)) ((-9.256247e-14 -1.457187e+04 -1.245824e-13) (-3.892149e-18 1.665387e+01 1.427829e-16))
0.000766788   	((1.150845e+03 -4.451394e-14 3.595744e+04) (1.913230e+01 -1.639232e-18 4.444736e+00)) ((-7.871210e-14 -1.551962e+04 -1.301592e-13) (-1.502886e-18 1.739695e+01 1.459606e-16))
0.000817136   	((2.803758e+03 -3.106926e-14 5.171167e+04) (1.986614e+01 -1.779484e-18 4.554704e+00)) ((-1.467747e-13 -1.916317e+04 -1.844121e-13) (5.200572e-19 1.814386e+01 1.491938e-16))
0.000867751   	((1.226442e+03 -3.164993e-14 3.215738e+04) (2.053698e+01 -1.803674e-18 4.624822e+00)) ((-7.530118e-14 -1.351125e+04 -1.134201e-13) (2.011347e-18 1.882974e+01 1.515871e-16))
0.000918907   	((2.491987e+03 -2.773906e-14 4.063335e+04) (2.122655e+01 -1.977353e-18 4.682660e+00)) ((-9.334267e-14 -1.520012e+04 -1.470667e-13) (2.695686e-18 1.953436e+01 1.534313e-16))
0.000970477   	((2.812036e+03 -2.269645e-14 3.744928e+04) (2.187683e+01 -2.444945e-18 4.796867e+00)) ((-9.110791e-14 -1.382775e+04 -1.441143e-13) (5.307981e-18 2.019570e+01 1.562483e-16))
0.00102247    	((1.920019e+03 -2.983299e-14 3.401469e+04) (2.247783e+01 -2.891400e-18 4.870747e+00)) ((-5.986726e-14 -1.344850e+04 -1.260026e-13) (6.817480e-18 2.080853e+01 1.588623e-16))
0.00107461    	((2.506026e+03 -2.411651e-14 3.735949e+04) (2.307011e+01 -3.330784e-18 4.943029e+00)) ((-7.199191e-14 -1.384745e+04 -1.390880e-13) (8.074855e-18 2.141205e+01 1.614236e-16))
0.00112689    	((1.031154e+03 -2.532210e-14 2.708464e+04) (2.361028e+01 -3.604812e-18 4.954884e+00)) ((-4.778473e-14 -1.156441e+04 -9.709102e-14) (8.536144e-18 2.196697e+01 1.640088e-16))
0.00117946    	((2.246041e+03 -1.437873e-14 2.820019e+04) (2.414676e+01 -3.774813e-18 5.004463e+00)) ((-6.711099e-14 -1.057739e+04 -1.079520e-13) (8.928900e-18 2.251621e+01 1.707509e-16))
0.00123262    	((6.514954e+03 -3.395322e-15 4.667584e+04) (2.480182e+01 -3.667254e-18 5.109478e+00)) ((-8.830638e-14 -1.280139e+04 -1.892601e-13) (8.631237e-18 2.318133e+01 1.771633e-16))
0.0012864     	((1.116753e+03 -1.498016e-14 2.474608e+04) (2.527382e+01 -3.395094e-18 5.136857e+00)) ((-5.463665e-14 -1.021827e+04 -8.778590e-14) (9.505366e-18 2.366771e+01 1.813843e-16))
0.0013408     	((1.774460e+03 -7.799321e-15 2.674451e+04) (2.576085e+01 -2.724798e-18 5.124892e+00)) ((-6.414084e-14 -1.001677e+04 -9.570569e-14) (1.141499e-17 2.417239e+01 1.856827e-16))
0.001396      	((2.983904e+03 1.434713e-15 2.899648e+04) (2.627066e+01 -3.193823e-18 5.230819e+00)) ((-6.205474e-14 -9.914259e+03 -1.067744e-13) (9.291389e-18 2.469387e+01 1.849009e-16))
0.00145204    	((2.047624e+03 -5.514320e-15 2.701467e+04) (2.670792e+01 -3.274591e-18 5.264237e+00)) ((-6.024271e-14 -9.857258e+03 -9.741229e-14) (9.568883e-18 2.514598e+01 1.858396e-16))
0.00150893    	((2.719412e+03 -3.139148e-15 3.017220e+04) (2.717135e+01 -2.787678e-18 5.268421e+00)) ((-6.685333e-14 -1.029983e+04 -1.109929e-13) (8.951470e-18 2.562722e+01 1.871978e-16))
0.00156672    	((2.688073e+03 3.234041e-16 2.813755e+04) (2.764726e+01 -1.592000e-18 5.198999e+00)) ((-6.651196e-14 -9.613806e+03 -1.041629e-13) (6.418176e-18 2.612701e+01 1.880524e-16))
0.00162542    	((1.188100e+04 3.209563e-14 6.552924e+04) (2.856558e+01 -2.348975e-18 5.385347e+00)) ((-1.743948e-13 -1.580075e+04 -2.813571e-13) (1.030498e-17 2.705717e+01 1.894037e-16))
0.00168357    	((1.532991e+03 -1.558828e-15 2.332096e+04) (2.899263e+01 -2.230161e-18 5.361427e+00)) ((-6.444744e-14 -9.114757e+03 -8.360320e-14) (1.161969e-17 2.750602e+01 1.903814e-16))
0.00174247    	((1.419316e+03 2.291038e-15 2.166638e+04) (2.937980e+01 -1.922353e-18 5.288614e+00)) ((-6.086454e-14 -8.351030e+03 -7.601052e-14) (1.200614e-17 2.791821e+01 1.915834e-16))
0.00180252    	((2.566846e+03 2.396312e-14 2.044125e+04) (2.991922e+01 -1.394852e-18 5.375422e+00)) ((-7.460827e-14 -7.447409e+03 -8.019657e-14) (1.123818e-17 2.847751e+01 1.920237e-16))
0.00186359    	((8.138583e+03 2.568956e-14 4.584810e+04) (3.061140e+01 -1.811172e-18 5.347844e+00)) ((-1.292303e-13 -1.193939e+04 -1.936941e-13) (1.201219e-17 2.919502e+01 1.968836e-16))
0.00192507    	((7.335140e+01 -1.422288e-15 1.541696e+04) (3.073253e+01 -1.838129e-18 5.337776e+00)) ((-4.054024e-14 -7.087551e+03 -4.841385e-14) (1.516815e-17 2.932955e+01 2.053770e-16))
0.00198783    	((1.812420e+02 1.745437e-16 1.495901e+04) (3.091303e+01 -1.519275e-18 5.318168e+00)) ((-4.717922e-14 -7.081865e+03 -5.300732e-14) (1.446808e-17 2.952684e+01 2.214768e-16))
0.00205193    	((2.659523e+02 5.333481e-15 1.425915e+04) (3.102349e+01 -1.566108e-18 5.129461e+00)) ((-3.694630e-14 -6.329315e+03 -4.555715e-14) (1.532100e-17 2.966468e+01 2.296805e-16))
0.00211743    	((2.764931e+02 9.757017e-15 1.269771e+04) (3.099686e+01 -1.951641e-18 5.096402e+00)) ((-3.349646e-14 -5.620420e+03 -3.907750e-14) (8.848875e-18 2.964709e+01 2.328859e-16))
0.00218491    	((4.609378e+02 2.016329e-14 1.110129e+04) (3.122687e+01 -2.965974e-18 4.974547e+00)) ((-1.177826e-14 -5.027870e+03 -2.982424e-14) (7.381631e-18 2.990484e+01 2.424888e-16))
0.00225423    	((1.940143e+02 1.132148e-14 1.137204e+04) (3.151901e+01 -2.549826e-18 4.596818e+00)) ((-3.231881e-14 -5.046472e+03 -3.460375e-14) (1.189367e-17 3.024685e+01 2.437503e-16))
0.00232579    	((3.076278e+02 1.810140e-14 1.057765e+04) (3.166325e+01 -2.579232e-18 4.529461e+00)) ((-3.876331e-14 -4.677716e+03 -3.304933e-14) (2.016172e-17 3.041168e+01 2.460323e-16))
0.00239974    	((9.712745e+02 3.312186e-14 8.767438e+03) (3.198633e+01 -2.894362e-18 4.361737e+00)) ((-5.261552e-14 -3.956718e+03 -3.609107e-14) (2.635150e-17 3.077676e+01 2.561457e-16))
0.00247593    	((8.213695e+02 2.538822e-14 9.244474e+03) (3.219576e+01 -4.807312e-18 4.278998e+00)) ((-3.682236e-14 -4.094593e+03 -3.459023e-14) (2.765970e-17 3.102130e+01 2.585289e-16))
0.00255451    	((3.597432e+02 8.568459e-15 9.767884e+03) (3.224805e+01 -3.349998e-18 4.340337e+00)) ((-1.822013e-14 -4.243263e+03 -2.993197e-14) (2.299872e-17 3.109466e+01 2.497932e-16))
0.00263528    	((5.316815e+02 1.264226e-16 9.114059e+03) (3.247553e+01 -4.056617e-18 4.273951e+00)) ((8.429114e-15 -3.988655e+03 -2.722524e-14) (2.146617e-17 3.137567e+01 2.396948e-16))
0.00271837    	((3.494538e+02 1.111323e-14 8.973199e+03) (3.259199e+01 -5.730434e-18 4.077195e+00)) ((-1.456559e-14 -3.914207e+03 -2.651166e-14) (2.475942e-17 3.156757e+01 2.469269e-16))
0.00279875    	((3.229839e+02 8.672292e-15 9.311009e+03) (3.255022e+01 -3.311345e-18 4.111106e+00)) ((-1.561747e-14 -4.055165e+03 -2.847649e-14) (2.380152e-17 3.157956e+01 2.570848e-16))
0.00288606    	((1.212357e+03 -2.378956e-14 7.463618e+03) (3.284598e+01 -3.515214e-18 4.019857e+00)) ((4.005082e-14 -3.424632e+03 -3.513952e-14) (2.589133e-17 3.196590e+01 2.763452e-16))
0.00297566    	((1.802700e+02 1.408112e-14 8.721933e+03) (3.298338e+01 -4.126373e-18 3.801653e+00)) ((-1.886179e-14 -3.747802e+03 -2.381174e-14) (2.894873e-17 3.219601e+01 2.945850e-16))
0.00304936    	((1.600422e+02 1.048030e-14 9.369637e+03) (3.296766e+01 -3.443943e-18 3.772628e+00)) ((-1.698011e-14 -4.126162e+03 -2.685257e-14) (2.909652e-17 3.222802e+01 3.074122e-16))
0.00312403    	((2.410437e+02 -5.938553e-16 8.600686e+03) (3.306198e+01 -2.988967e-18 3.710571e+00)) ((-3.595754e-15 -3.800203e+03 -2.662651e-14) (2.598939e-17 3.237508e+01 3.300223e-16))
0.00319971    	((1.981952e+02 1.180988e-14 8.537840e+03) (3.313818e+01 -3.422504e-18 3.561151e+00)) ((-1.667213e-14 -3.672045e+03 -2.390269e-14) (2.513294e-17 3.250913e+01 3.435553e-16))
0.00328499    	((2.323286e+02 6.952986e-15 8.137981e+03) (3.318104e+01 -3.308339e-18 3.417384e+00)) ((-1.013802e-14 -3.506351e+03 -2.382043e-14) (2.387320e-17 3.260950e+01 3.563957e-16))
0.00337996    	((2.486953e+02 3.355679e-15 7.525171e+03) (3.308050e+01 -2.617602e-18 3.413072e+00)) ((-2.415273e-15 -3.217857e+03 -2.166356e-14) (1.484770e-17 3.254278e+01 3.605007e-16))
0.00348384    	((3.635493e+02 4.269678e-15 6.784960e+03) (3.322641e+01 -2.986097e-18 3.326555e+00)) ((3.079679e-14 -2.984111e+03 -1.726782e-14) (9.672370e-18 3.275085e+01 3.784779e-16))
0.00360015    	((2.120444e+02 1.572733e-14 7.203369e+03) (3.334050e+01 -2.692289e-18 3.146288e+00)) ((-1.436621e-14 -3.036386e+03 -1.870792e-14) (1.005149e-17 3.293877e+01 3.864228e-16))
0.00372728    	((1.876506e+02 1.489882e-14 7.030766e+03) (3.347219e+01 -1.376378e-18 2.930682e+00)) ((-1.290450e-14 -2.963298e+03 -1.824382e-14) (1.937016e-17 3.308530e+01 3.928625e-16))
0.00385441    	((2.930401e+02 2.036171e-15 6.833159e+03) (3.329853e+01 1.874294e-18 3.122171e+00)) ((1.262824e-14 -3.036638e+03 -2.068953e-14) (2.237223e-17 3.273403e+01 3.964905e-16))
0.00397957    	((7.512791e+02 -2.331621e-15 5.003677e+03) (3.349937e+01 1.798627e-18 3.094362e+00)) ((5.759381e-14 -2.346966e+03 -1.697529e-14) (2.565459e-17 3.286728e+01 4.125803e-16))
0.00410473    	((3.113910e+02 -2.094866e-14 5.734528e+03) (3.334491e+01 1.999875e-18 3.051897e+00)) ((-3.540900e-14 -2.284397e+03 -3.779898e-14) (2.421734e-17 3.270683e+01 4.124805e-16))
0.00423088    	((1.348896e+02 1.004596e-14 6.762653e+03) (3.337276e+01 1.634055e-18 2.941062e+00)) ((-2.194634e-14 -2.811661e+03 -2.201455e-14) (2.259804e-17 3.279118e+01 4.034563e-16))
0.00435603    	((1.413809e+02 1.271394e-14 6.670917e+03) (3.320990e+01 2.956731e-18 2.884494e+00)) ((-1.702886e-14 -2.805976e+03 -1.978407e-14) (2.076948e-17 3.264621e+01 4.017321e-16))
0.00447825    	((2.579954e+02 1.237562e-14 5.917974e+03) (3.344546e+01 3.110642e-18 2.767216e+00)) ((1.889609e-14 -2.567400e+03 -1.573534e-14) (2.057452e-17 3.294451e+01 4.052369e-16))
0.00459952    	((1.570768e+02 1.289422e-14 6.555513e+03) (3.343641e+01 2.969306e-18 2.647315e+00)) ((-1.526678e-14 -2.751223e+03 -1.919321e-14) (2.297883e-17 3.297246e+01 4.059311e-16))
0.00471983    	((1.729484e+02 1.084799e-14 6.289359e+03) (3.334576e+01 3.110664e-18 2.579281e+00)) ((-9.858760e-15 -2.623657e+03 -1.841606e-14) (2.326655e-17 3.290435e+01 4.048054e-16))
0.00483828    	((2.785419e+02 8.004020e-15 5.879757e+03) (3.325657e+01 2.689509e-18 2.554762e+00)) ((5.292191e-15 -2.466178e+03 -2.070292e-14) (2.193122e-17 3.283426e+01 4.013018e-16))
0.00495582    	((1.833555e+02 2.714424e-14 5.844282e+03) (3.333406e+01 4.211952e-18 2.467873e+00)) ((1.127980e-15 -2.458807e+03 -1.710581e-14) (2.265121e-17 3.294598e+01 4.022231e-16))
0.00507335    	((1.709930e+02 1.531639e-14 5.810540e+03) (3.341507e+01 2.660538e-18 2.372105e+00)) ((1.497652e-14 -2.416768e+03 -2.123591e-14) (2.740050e-17 3.306413e+01 4.057906e-16))
0.00518996    	((2.290367e+02 1.329278e-14 5.564496e+03) (3.344880e+01 3.217219e-18 2.311426e+00)) ((2.542082e-14 -2.343026e+03 -1.932067e-14) (2.796598e-17 3.312602e+01 4.099003e-16))
0.0053075     	((2.847073e+02 4.010312e-15 5.429568e+03) (3.338259e+01 4.137462e-18 2.316429e+00)) ((1.915124e-14 -2.281032e+03 -1.974070e-14) (2.759795e-17 3.307259e+01 4.082836e-16))
0.00542504    	((1.833473e+02 1.515641e-14 5.729517e+03) (3.327348e+01 5.363676e-18 2.336488e+00)) ((-8.318022e-16 -2.354824e+03 -1.713395e-14) (2.466175e-17 3.296978e+01 4.032656e-16))
0.00553981    	((2.341273e+02 2.091965e-14 5.358045e+03) (3.324284e+01 6.957322e-18 2.321833e+00)) ((5.077664e-15 -2.246683e+03 -1.397577e-14) (2.073963e-17 3.295474e+01 4.000523e-16))
0.00565367    	((3.246091e+02 3.170086e-14 4.778884e+03) (3.341628e+01 6.261799e-18 2.266313e+00)) ((1.243002e-14 -2.083811e+03 -9.895147e-15) (1.867768e-17 3.316257e+01 4.047582e-16))
0.00576663    	((1.639355e+02 1.733078e-14 5.698858e+03) (3.348818e+01 6.650018e-18 2.205271e+00)) ((-8.379375e-15 -2.315116e+03 -1.512639e-14) (1.442008e-17 3.326562e+01 3.999019e-16))
0.00587959    	((1.613128e+02 1.753736e-14 5.639046e+03) (3.354616e+01 7.563855e-18 2.166640e+00)) ((-7.988901e-15 -2.298717e+03 -1.460289e-14) (7.033446e-18 3.335176e+01 3.923098e-16))
0.00599347    	((1.614119e+02 1.805734e-14 5.565385e+03) (3.353878e+01 9.365818e-18 2.213563e+00)) ((-8.046483e-15 -2.264365e+03 -1.399082e-14) (-6.529211e-18 3.335701e+01 3.810764e-16))
0.00610922    	((1.622210e+02 1.861696e-14 5.478207e+03) (3.345712e+01 1.037973e-17 2.310746e+00)) ((-8.403172e-15 -2.221106e+03 -1.339932e-14) (-1.971353e-17 3.327855e+01 3.674699e-16))
0.00622402    	((1.895794e+02 2.166602e-14 5.263432e+03) (3.335532e+01 9.786594e-18 2.358234e+00)) ((-4.608821e-15 -2.160501e+03 -1.196750e-14) (-2.719551e-17 3.318358e+01 3.547158e-16))
0.00633882    	((3.252723e+02 3.409526e-14 4.288243e+03) (3.345009e+01 7.702239e-18 2.337995e+00)) ((2.667355e-14 -1.905508e+03 -5.739032e-15) (-3.035916e-17 3.330482e+01 3.463594e-16))
0.0064546     	((1.599903e+02 1.903959e-14 5.373300e+03) (3.339177e+01 6.617520e-18 2.240813e+00)) ((-9.137727e-15 -2.173654e+03 -1.257497e-14) (-3.260928e-17 3.327475e+01 3.279288e-16))
0.00657037    	((1.604739e+02 1.925351e-14 5.320475e+03) (3.329845e+01 6.731217e-18 2.118507e+00)) ((-8.962621e-15 -2.149726e+03 -1.223560e-14) (-3.402719e-17 3.320847e+01 3.107628e-16))
0.00668715    	((1.622873e+02 1.985837e-14 5.249865e+03) (3.316682e+01 6.770462e-18 2.004158e+00)) ((-8.623997e-15 -2.123104e+03 -1.181654e-14) (-3.535091e-17 3.309803e+01 2.933379e-16))
0.00680393    	((1.841774e+02 2.217653e-14 5.098219e+03) (3.296628e+01 6.723219e-18 1.976540e+00)) ((-2.981327e-15 -2.096379e+03 -1.077335e-14) (-3.988910e-17 3.290030e+01 2.754858e-16))
0.00692071    	((1.639022e+02 2.074368e-14 5.150810e+03) (3.275631e+01 6.717445e-18 1.942920e+00)) ((-7.888117e-15 -2.083135e+03 -1.113235e-14) (-4.004167e-17 3.269248e+01 2.606187e-16))
0.00703749    	((1.617179e+02 2.077024e-14 5.105305e+03) (3.258001e+01 5.559853e-18 1.885502e+00)) ((-8.684669e-15 -2.054699e+03 -1.089846e-14) (-3.578990e-17 3.252726e+01 2.505351e-16))
0.00715427    	((1.738392e+02 2.395343e-14 4.956858e+03) (3.242932e+01 4.652520e-18 1.806143e+00)) ((-7.036890e-15 -2.002516e+03 -9.684112e-15) (-2.949655e-17 3.239735e+01 2.431094e-16))
0.00727105    	((2.802810e+02 4.790585e-14 4.125856e+03) (3.245308e+01 3.171475e-18 1.705830e+00)) ((1.072642e-14 -1.785265e+03 -1.774695e-15) (-1.927078e-17 3.246231e+01 2.258368e-16))
0.00738783    	((1.599861e+02 2.084300e-14 5.005919e+03) (3.240220e+01 1.674586e-18 1.639398e+00)) ((-1.004673e-14 -1.996567e+03 -1.042283e-14) (-1.019643e-17 3.245017e+01 2.259428e-16))
0.00750353    	((1.581710e+02 2.082550e-14 4.976673e+03) (3.240661e+01 7.735331e-19 1.645440e+00)) ((-1.007518e-14 -1.988140e+03 -1.037183e-14) (2.963528e-19 3.249510e+01 2.297027e-16))
0.00761924    	((1.623503e+02 2.154392e-14 4.906147e+03) (3.240796e+01 -4.686277e-20 1.803536e+00)) ((-9.992992e-15 -1.954629e+03 -9.921937e-15) (1.449744e-17 3.252776e+01 2.369419e-16))
0.00773495    	((1.607926e+02 2.169012e-14 4.860961e+03) (3.242136e+01 -1.094247e-18 2.171953e+00)) ((-1.093203e-14 -1.928232e+03 -9.705201e-15) (3.383390e-17 3.256610e+01 2.448926e-16))
0.00785066    	((1.818747e+02 2.646539e-14 4.683976e+03) (3.252130e+01 -3.167082e-18 2.827019e+00)) ((-7.289651e-15 -1.875871e+03 -8.024702e-15) (5.743536e-17 3.269405e+01 2.438334e-16))
0.00796315    	((1.641621e+02 2.277751e-14 4.795349e+03) (3.270347e+01 -4.757319e-18 3.750459e+00)) ((-9.836099e-15 -1.903200e+03 -9.110498e-15) (8.705568e-17 3.291472e+01 2.391156e-16))
0.00807358    	((1.596381e+02 2.239759e-14 4.793768e+03) (3.290040e+01 -5.651602e-18 4.752489e+00)) ((-1.067543e-14 -1.905743e+03 -9.251984e-15) (1.171813e-16 3.316215e+01 2.335003e-16))
0.008183      	((1.763919e+02 2.752822e-14 4.623816e+03) (3.304826e+01 -6.524231e-18 5.687145e+00)) ((-1.775365e-14 -1.878320e+03 -8.376106e-15) (1.440807e-16 3.337464e+01 2.288138e-16))
0.00829344    	((2.492751e+02 4.607355e-14 3.933999e+03) (3.318997e+01 -8.099665e-18 6.453058e+00)) ((-3.967414e-14 -1.679310e+03 -4.146029e-15) (1.648634e-16 3.359569e+01 2.252236e-16))
0.00840709    	((1.611732e+02 2.203345e-14 4.773429e+03) (3.312293e+01 -9.853433e-18 6.894750e+00)) ((-9.015802e-15 -1.896390e+03 -9.089836e-15) (1.742621e-16 3.361017e+01 2.213818e-16))
0.00852419    	((1.586001e+02 2.225075e-14 4.682392e+03) (3.286135e+01 -1.124500e-17 5.654246e+00)) ((-9.395014e-15 -1.852096e+03 -8.691628e-15) (1.301577e-16 3.345477e+01 2.131534e-16))
0.00864129    	((1.613441e+02 2.402669e-14 4.610279e+03) (3.224174e+01 -1.271648e-17 3.809529e+00)) ((-1.218096e-14 -1.846981e+03 -8.488031e-15) (6.464155e-17 3.293317e+01 2.053727e-16))
0.00875839    	((1.635007e+02 2.427596e-14 4.567918e+03) (3.167987e+01 -1.355059e-17 3.233787e+00)) ((-1.194355e-14 -1.814865e+03 -8.121116e-15) (4.202013e-17 3.243842e+01 1.951921e-16))
0.00887673    	((1.339556e+02 2.016790e-14 4.771503e+03) (3.126674e+01 -1.354845e-17 2.805112e+00)) ((-9.703301e-15 -1.957037e+03 -1.047231e-14) (3.054772e-17 3.209299e+01 1.836122e-16))
0.00899506    	((1.513184e+02 2.229045e-14 4.602221e+03) (3.095557e+01 -1.321602e-17 2.324717e+00)) ((-9.583437e-15 -1.832189e+03 -8.942597e-15) (2.293588e-17 3.185521e+01 1.723749e-16))
0.00911339    	((1.545639e+02 2.282024e-14 4.565073e+03) (3.086338e+01 -1.431805e-17 1.829286e+00)) ((-9.837241e-15 -1.808207e+03 -8.466128e-15) (2.534244e-17 3.184893e+01 1.536108e-16))
0.00923172    	((1.551410e+02 2.276924e-14 4.584084e+03) (3.082917e+01 -2.000364e-17 1.412825e+00)) ((-9.594180e-15 -1.818442e+03 -8.434187e-15) (3.297409e-17 3.191075e+01 1.338452e-16))
0.00935137    	((1.546739e+02 2.307889e-14 4.491753e+03) (3.082485e+01 -2.618047e-17 1.077656e+00)) ((-9.747967e-15 -1.772533e+03 -7.985315e-15) (4.320664e-17 3.201084e+01 1.148135e-16))
0.00947102    	((2.311441e+02 3.212634e-14 3.627970e+03) (3.097181e+01 -3.132600e-17 8.358195e-01)) ((3.797702e-16 -1.541216e+03 -4.779441e-15) (5.433409e-17 3.226927e+01 9.539174e-17))
0.00959067    	((1.546535e+02 2.317871e-14 4.478163e+03) (3.111575e+01 -3.539553e-17 7.243176e-01)) ((-9.957811e-15 -1.760636e+03 -7.788320e-15) (6.324978e-17 3.251715e+01 8.091466e-17))
0.00971031    	((1.543307e+02 2.336706e-14 4.426361e+03) (3.135983e+01 -3.891331e-17 8.392699e-01)) ((-1.022863e-14 -1.734484e+03 -7.548495e-15) (6.410913e-17 3.285645e+01 7.148816e-17))
0.00982996    	((1.551081e+02 2.343996e-14 4.403822e+03) (3.166950e+01 -4.215417e-17 1.385973e+00)) ((-1.032875e-14 -1.722481e+03 -7.446307e-15) (5.035232e-17 3.324335e+01 7.547252e-17))
0.00994961    	((1.549864e+02 2.350421e-14 4.405782e+03) (3.217553e+01 -4.762475e-17 2.841626e+00)) ((-1.029771e-14 -1.727962e+03 -7.456135e-15) (2.231442e-18 3.380308e+01 9.803646e-17))
0.0100638     	((1.649991e+02 2.484935e-14 4.267256e+03) (3.288448e+01 -6.033529e-17 5.590349e+00)) ((-8.909441e-15 -1.688476e+03 -6.948755e-15) (-9.047204e-17 3.453206e+01 1.290541e-16))
0.010173      	((1.542575e+02 2.370749e-14 4.400180e+03) (3.349057e+01 -7.809397e-17 8.940069e+00)) ((-1.047895e-14 -1.727113e+03 -7.393794e-15) (-2.025324e-16 3.514041e+01 1.505016e-16))
0.0102798     	((1.526014e+02 2.372002e-14 4.389923e+03) (3.377950e+01 -1.000696e-16 1.236793e+01)) ((-1.053597e-14 -1.725522e+03 -7.354213e-15) (-3.128780e-16 3.542096e+01 1.530125e-16))
0.0103855     	((1.516564e+02 2.369670e-14 4.370473e+03) (3.382173e+01 -1.213035e-16 1.530798e+01)) ((-1.069265e-14 -1.715407e+03 -7.265871e-15) (-4.041636e-16 3.545920e+01 1.427883e-16))
0.01049       	((1.524254e+02 2.386035e-14 4.345679e+03) (3.377554e+01 -1.378654e-16 1.744864e+01)) ((-1.072863e-14 -1.702822e+03 -7.123633e-15) (-4.681365e-16 3.542466e+01 1.292048e-16))
0.0105934     	((1.523548e+02 2.390086e-14 4.368021e+03) (3.372667e+01 -1.499368e-16 1.895502e+01)) ((-1.063159e-14 -1.716165e+03 -7.177552e-15) (-5.122305e-16 3.540038e+01 1.172677e-16))
0.0106956     	((1.514916e+02 2.386437e-14 4.334478e+03) (3.369467e+01 -1.568718e-16 1.991098e+01)) ((-1.095428e-14 -1.699222e+03 -7.061793e-15) (-5.392176e-16 3.540165e+01 1.076258e-16))
0.0107967     	((2.072237e+02 2.674717e-14 3.583160e+03) (3.370623e+01 -1.612291e-16 2.045568e+01)) ((-1.353309e-14 -1.506434e+03 -6.336160e-15) (-5.515636e-16 3.545308e+01 9.598982e-17))
0.0108979     	((1.705873e+02 2.510906e-14 4.059173e+03) (3.371590e+01 -1.638059e-16 2.075955e+01)) ((-1.193752e-14 -1.623119e+03 -6.618407e-15) (-5.549896e-16 3.550186e+01 8.699811e-17))
0.0109979     	((1.533770e+02 2.429160e-14 4.256061e+03) (3.367588e+01 -1.652789e-16 2.091112e+01)) ((-1.140298e-14 -1.667772e+03 -6.724883e-15) (-5.523932e-16 3.549233e+01 8.000441e-17))
0.0110968     	((1.525688e+02 2.435781e-14 4.247675e+03) (3.362680e+01 -1.649711e-16 2.088769e+01)) ((-1.161015e-14 -1.662939e+03 -6.652987e-15) (-5.434656e-16 3.546610e+01 7.578163e-17))
0.0111957     	((1.530204e+02 2.450796e-14 4.223436e+03) (3.351973e+01 -1.646221e-16 2.084108e+01)) ((-1.168006e-14 -1.651900e+03 -6.530114e-15) (-5.341615e-16 3.537290e+01 7.199627e-17))
0.0112947     	((1.531280e+02 2.450343e-14 4.250172e+03) (3.340957e+01 -1.623681e-16 2.041741e+01)) ((-1.161270e-14 -1.664825e+03 -6.596215e-15) (-5.118189e-16 3.527943e+01 6.848536e-17))
0.0113947     	((1.518624e+02 2.452896e-14 4.207249e+03) (3.330990e+01 -1.633277e-16 2.038063e+01)) ((-1.167330e-14 -1.641080e+03 -6.387450e-15) (-5.047321e-16 3.518976e+01 6.548277e-17))
0.011496      	((1.515807e+02 2.465041e-14 4.174097e+03) (3.324302e+01 -1.605989e-16 1.963681e+01)) ((-1.172965e-14 -1.624139e+03 -6.224252e-15) (-4.740287e-16 3.515035e+01 6.574306e-17))
0.0115984     	((1.510470e+02 2.470334e-14 4.164487e+03) (3.313863e+01 -1.500384e-16 1.748735e+01)) ((-1.179661e-14 -1.617389e+03 -6.146827e-15) (-3.926675e-16 3.510595e+01 6.658131e-17))
0.0117048     	((1.509239e+02 2.485596e-14 4.127395e+03) (3.301527e+01 -1.306926e-16 1.378398e+01)) ((-1.189957e-14 -1.599940e+03 -5.973284e-15) (-2.552262e-16 3.508042e+01 6.725369e-17))
0.01182       	((1.511801e+02 2.504784e-14 4.061631e+03) (3.273363e+01 -1.057984e-16 8.982013e+00)) ((-1.197252e-14 -1.565487e+03 -5.668349e-15) (-7.757724e-17 3.492323e+01 6.025078e-17))
0.0119421     	((1.526290e+02 2.527248e-14 4.028545e+03) (3.222238e+01 -7.900343e-17 3.597844e+00)) ((-1.200139e-14 -1.549816e+03 -5.501018e-15) (1.221408e-16 3.454972e+01 4.252668e-17))
0.0120642     	((1.522867e+02 2.529702e-14 4.038759e+03) (3.105053e+01 -7.104091e-17 1.269235e+00)) ((-1.221180e-14 -1.554607e+03 -5.501499e-15) (2.123848e-16 3.343160e+01 -9.037040e-18))
0.0121863     	((1.520664e+02 2.536901e-14 4.004400e+03) (2.985063e+01 -6.663797e-17 1.319009e-02)) ((-1.232834e-14 -1.535518e+03 -5.321005e-15) (2.606538e-16 3.225935e+01 -6.608211e-17))
0.0123083     	((1.520597e+02 2.555000e-14 3.985073e+03) (2.922516e+01 -6.298878e-17 -8.529961e-01)) ((-1.275342e-14 -1.526285e+03 -5.208532e-15) (2.925130e-16 3.166411e+01 -1.021907e-16))
0.0124304     	((1.950694e+02 3.450806e-14 3.258247e+03) (2.887801e+01 -5.935738e-17 -1.454565e+00)) ((-2.965221e-14 -1.331014e+03 -3.319022e-15) (3.141446e-16 3.134561e+01 -1.311436e-16))
0.0125525     	((1.560886e+02 2.625406e-14 3.944977e+03) (2.864816e+01 -6.010466e-17 -1.837452e+00)) ((-1.375715e-14 -1.517643e+03 -5.038128e-15) (3.318246e-16 3.113369e+01 -1.565309e-16))
0.0126746     	((1.529712e+02 2.597547e-14 3.943496e+03) (2.852769e+01 -6.107232e-17 -2.017555e+00)) ((-1.336258e-14 -1.511704e+03 -4.978867e-15) (3.403738e-16 3.102132e+01 -1.790804e-16))
0.0127967     	((1.514953e+02 2.583491e-14 3.969561e+03) (2.855532e+01 -6.175951e-17 -2.048138e+00)) ((-1.318570e-14 -1.528397e+03 -5.101829e-15) (3.410354e-16 3.105303e+01 -1.985265e-16))
0.0129188     	((1.512588e+02 2.588731e-14 3.938857e+03) (2.873330e+01 -6.209918e-17 -1.943486e+00)) ((-1.330854e-14 -1.510666e+03 -4.918941e-15) (3.340504e-16 3.123830e+01 -2.156622e-16))
0.0130409     	((1.511852e+02 2.591562e-14 3.929031e+03) (2.907739e+01 -6.246866e-17 -1.683486e+00)) ((-1.328915e-14 -1.504003e+03 -4.830027e-15) (3.199787e-16 3.159489e+01 -2.298792e-16))
0.0131652     	((1.507078e+02 2.592487e-14 3.918887e+03) (2.959221e+01 -6.209639e-17 -1.218110e+00)) ((-1.330744e-14 -1.498673e+03 -4.759615e-15) (2.970630e-16 3.212708e+01 -2.409661e-16))
0.0132894     	((1.501665e+02 2.595615e-14 3.905738e+03) (3.020291e+01 -6.176590e-17 -4.313044e-01)) ((-1.345976e-14 -1.492606e+03 -4.684995e-15) (2.634091e-16 3.275485e+01 -2.506144e-16))
0.0134137     	((1.494464e+02 2.591070e-14 3.902881e+03) (3.098386e+01 -6.223447e-17 9.310707e-01)) ((-1.345455e-14 -1.490156e+03 -4.650902e-15) (2.132649e-16 3.354772e+01 -2.576585e-16))
0.013538      	((1.499042e+02 2.601130e-14 3.917890e+03) (3.171732e+01 -6.337811e-17 3.353032e+00)) ((-1.359094e-14 -1.500538e+03 -4.700038e-15) (1.307024e-16 3.426900e+01 -2.680171e-16))
0.0136576     	((1.489684e+02 2.589655e-14 3.914370e+03) (3.249402e+01 -6.585896e-17 7.346358e+00)) ((-1.356875e-14 -1.496866e+03 -4.645161e-15) (1.763241e-18 3.499380e+01 -2.743111e-16))
0.0137729     	((1.483171e+02 2.587198e-14 3.913259e+03) (3.307364e+01 -7.003277e-17 1.303135e+01)) ((-1.363993e-14 -1.500281e+03 -4.662366e-15) (-1.766387e-16 3.547019e+01 -2.860075e-16))
0.0138862     	((1.462976e+02 2.565003e-14 3.930626e+03) (3.351663e+01 -7.481514e-17 1.950626e+01)) ((-1.351008e-14 -1.511212e+03 -4.752030e-15) (-3.780270e-16 3.578370e+01 -3.013221e-16))
0.0139994     	((1.479385e+02 2.587610e-14 3.887792e+03) (3.374848e+01 -7.822517e-17 2.523864e+01)) ((-1.366748e-14 -1.487877e+03 -4.534878e-15) (-5.602842e-16 3.589739e+01 -3.189140e-16))
0.0141126     	((1.483504e+02 2.591077e-14 3.869700e+03) (3.387937e+01 -8.072208e-17 2.954724e+01)) ((-1.369473e-14 -1.478311e+03 -4.477551e-15) (-6.999661e-16 3.594046e+01 -3.328348e-16))
0.0142237     	((1.795502e+02 3.137220e-14 3.204052e+03) (3.448281e+01 -8.712368e-17 3.760766e+01)) ((-2.121408e-14 -1.298377e+03 -3.381090e-15) (-9.462674e-16 3.636369e+01 -3.324275e-16))
0.0143287     	((1.547895e+02 2.692768e-14 3.758149e+03) (3.506097e+01 -9.357407e-17 4.452188e+01)) ((-1.500697e-14 -1.451350e+03 -4.277534e-15) (-1.154997e-15 3.678418e+01 -3.356784e-16))
0.0144318     	((1.476076e+02 2.582468e-14 3.897933e+03) (3.556909e+01 -9.812878e-17 4.997269e+01)) ((-1.375338e-14 -1.504174e+03 -4.702830e-15) (-1.320546e-15 3.716700e+01 -3.414226e-16))
0.0145295     	((1.458093e+02 2.566661e-14 3.908369e+03) (3.609009e+01 -1.008361e-16 5.379432e+01)) ((-1.399069e-14 -1.507649e+03 -4.728791e-15) (-1.437830e-15 3.760822e+01 -3.464335e-16))
0.0146255     	((1.477389e+02 2.589156e-14 3.869829e+03) (3.643280e+01 -1.019779e-16 5.658755e+01)) ((-1.417598e-14 -1.479242e+03 -4.451580e-15) (-1.525657e-15 3.789713e+01 -3.569142e-16))
0.0147181     	((1.484136e+02 2.597355e-14 3.860982e+03) (3.730518e+01 -1.050856e-16 5.817374e+01)) ((-1.434391e-14 -1.471841e+03 -4.377253e-15) (-1.573688e-15 3.876388e+01 -3.531477e-16))
0.0148125     	((1.488784e+02 2.608758e-14 3.831558e+03) (3.734013e+01 -1.048559e-16 5.991052e+01)) ((-1.446941e-14 -1.459212e+03 -4.295702e-15) (-1.631440e-15 3.877021e+01 -3.744122e-16))