# Forces      
# CofR        : (0.000000e+00 0.000000e+00 -1.000000e+00)
# Time        forces(pressure viscous)	moments(pressure viscous)
0             	((1.136868e-13 6.764460e-14 3.410605e-13) (1.220541e+01 -1.066394e-17 3.236233e+00)) ((-2.248934e-14 1.136868e-13 2.716866e-14) (-1.348451e-17 1.061336e+01 8.380616e-17))
1.19976e-05   	((1.366791e+05 -1.967730e-12 2.794815e+06) (1.234869e+01 -1.042038e-17 2.747179e+00)) ((-1.239959e-11 -1.024547e+06 -9.735045e-12) (-1.324180e-17 1.097224e+01 8.970807e-17))
2.63878e-05   	((1.283036e+04 -9.016817e-13 4.672865e+05) (1.236636e+01 -1.013527e-17 2.579212e+00)) ((-9.403600e-13 -2.042411e+05 -1.798481e-12) (-1.325834e-17 1.105889e+01 9.134259e-17))
4.36511e-05   	((6.300532e+03 -4.201360e-13 2.516138e+05) (1.239451e+01 -9.803714e-18 2.484062e+00)) ((-7.161375e-13 -1.096052e+05 -9.232244e-13) (-1.301154e-17 1.112907e+01 9.276793e-17))
6.43527e-05   	((5.434284e+03 -2.016821e-13 1.613276e+05) (1.246512e+01 -9.426917e-18 2.412057e+00)) ((-6.080942e-13 -6.696320e+04 -5.693418e-13) (-1.285999e-17 1.123355e+01 9.293633e-17))
8.91792e-05   	((3.657520e+03 -1.385639e-13 1.145997e+05) (1.256457e+01 -8.951949e-18 2.345604e+00)) ((-4.339017e-13 -4.820795e+04 -4.007378e-13) (-1.261075e-17 1.136400e+01 9.320648e-17))
0.000118941   	((3.577039e+03 -8.147607e-14 8.617984e+04) (1.271425e+01 -8.364426e-18 2.287397e+00)) ((-3.392289e-13 -3.496236e+04 -3.000082e-13) (-1.241065e-17 1.154286e+01 9.335909e-17))
0.000154634   	((2.368137e+03 -5.201388e-14 6.165340e+04) (1.292209e+01 -7.670535e-18 2.238102e+00)) ((-2.462837e-13 -2.573015e+04 -2.113702e-13) (-1.213805e-17 1.177805e+01 9.376713e-17))
0.000197405   	((2.260503e+03 -3.964280e-14 5.100102e+04) (1.322427e+01 -6.910191e-18 2.187831e+00)) ((-1.837788e-13 -2.090215e+04 -1.767391e-13) (-1.172236e-17 1.210525e+01 9.497634e-17))
0.000248707   	((1.692595e+03 -1.165646e-14 3.654458e+04) (1.374005e+01 -6.118966e-18 2.166031e+00)) ((-1.590373e-13 -1.451346e+04 -1.195944e-13) (-1.168524e-17 1.262775e+01 9.751268e-17))
0.000310237   	((2.021754e+03 -3.797889e-15 3.005337e+04) (1.452114e+01 -5.321696e-18 2.179712e+00)) ((-1.170418e-13 -1.137965e+04 -9.957595e-14) (-1.237430e-17 1.340194e+01 1.023955e-16))
0.000383982   	((1.415156e+03 2.152467e-15 2.447965e+04) (1.561102e+01 -4.566620e-18 2.219230e+00)) ((-9.806648e-14 -9.519075e+03 -7.926260e-14) (-1.263424e-17 1.447309e+01 1.097852e-16))
0.000472342   	((1.433115e+03 3.709535e-15 1.990738e+04) (1.704886e+01 -3.483766e-18 2.320250e+00)) ((-7.603303e-14 -7.422436e+03 -6.398199e-14) (-1.283900e-17 1.587563e+01 1.176867e-16))
0.000577897   	((1.141848e+03 9.124444e-15 1.681132e+04) (1.866620e+01 -2.498709e-18 2.448934e+00)) ((-6.593112e-14 -6.338158e+03 -5.214966e-14) (-1.295983e-17 1.745958e+01 1.275268e-16))
0.000704014   	((9.999521e+02 1.417374e-14 1.457466e+04) (2.037092e+01 -2.068948e-18 2.590385e+00)) ((-5.806049e-14 -5.447337e+03 -4.386345e-14) (-1.255439e-17 1.913071e+01 1.390875e-16))
0.000854764   	((1.103289e+03 1.300323e-14 1.233527e+04) (2.207317e+01 -1.935174e-18 2.746729e+00)) ((-4.472085e-14 -4.397364e+03 -3.734511e-14) (-1.210344e-17 2.079755e+01 1.521981e-16))
0.00103538    	((8.474922e+02 1.844560e-14 1.089521e+04) (2.372567e+01 -2.211604e-18 2.860530e+00)) ((-4.300031e-14 -3.963327e+03 -3.072798e-14) (-1.026493e-17 2.242165e+01 1.644093e-16))
0.0012461     	((8.213082e+02 1.845460e-14 9.442717e+03) (2.519363e+01 -2.500383e-18 2.976543e+00)) ((-3.175539e-14 -3.371286e+03 -2.529119e-14) (-1.076770e-17 2.386591e+01 1.756016e-16))
0.00148653    	((8.566506e+02 2.019626e-14 9.433341e+03) (2.645089e+01 -2.603241e-18 3.027205e+00)) ((-3.366869e-14 -3.301889e+03 -2.597131e-14) (-9.432465e-18 2.511857e+01 1.860353e-16))
0.00161421    	((1.124353e+03 1.396299e-14 1.060222e+04) (2.703205e+01 -2.665068e-18 3.048787e+00)) ((-1.963677e-14 -3.776042e+03 -3.171468e-14) (-9.791410e-18 2.570438e+01 1.916342e-16))
0.00174189    	((9.711173e+02 1.487608e-14 1.073815e+04) (2.752484e+01 -2.424791e-18 3.040657e+00)) ((-2.871194e-14 -3.931523e+03 -3.238184e-14) (-9.285411e-18 2.620995e+01 1.964147e-16))
0.00186695    	((1.189224e+03 1.150963e-14 1.024642e+04) (2.794973e+01 -2.780589e-18 3.033294e+00)) ((-4.199707e-15 -3.713414e+03 -3.166504e-14) (-8.760198e-18 2.665015e+01 2.012075e-16))
0.00199115    	((1.113569e+03 8.305509e-15 1.130159e+04) (2.831049e+01 -2.473924e-18 3.010888e+00)) ((-1.113415e-14 -4.302672e+03 -3.703840e-14) (-8.444130e-18 2.703054e+01 2.046981e-16))
0.00211201    	((1.036007e+03 -1.546788e-14 1.578633e+04) (2.862843e+01 -2.091444e-18 2.980601e+00)) ((1.021054e-14 -7.034354e+03 -6.007758e-14) (-7.976908e-18 2.737016e+01 2.088383e-16))
0.00222381    	((9.287286e+02 -1.120683e-13 3.295800e+04) (2.895796e+01 -1.793175e-18 2.921079e+00)) ((1.267392e-13 -1.766761e+04 -1.517210e-13) (-5.867195e-18 2.772597e+01 2.160269e-16))
0.00233849    	((6.790159e+03 1.736330e-14 1.975439e+04) (2.955350e+01 -1.794395e-18 2.926596e+00)) ((8.526640e-14 -3.666011e+03 -8.928212e-14) (-9.058033e-18 2.834165e+01 2.292243e-16))
0.00247541    	((4.979005e+01 7.534172e-15 9.263830e+03) (2.940680e+01 -2.019527e-18 2.908286e+00)) ((-1.340724e-14 -4.491709e+03 -2.597828e-14) (-4.800400e-19 2.817558e+01 2.648315e-16))
0.00263188    	((8.235182e+01 1.355334e-14 7.686517e+03) (2.954881e+01 -1.547181e-18 2.856547e+00)) ((-1.454117e-14 -3.612412e+03 -1.938541e-14) (2.783546e-18 2.833385e+01 2.608364e-16))
0.00281093    	((1.405449e+02 2.417646e-14 6.049240e+03) (2.945771e+01 -8.373421e-19 2.847555e+00)) ((-2.023049e-14 -2.668427e+03 -1.150008e-14) (3.032877e-18 2.825679e+01 2.704969e-16))
0.00301556    	((1.395111e+02 2.170872e-14 5.444755e+03) (2.928999e+01 -9.211261e-19 2.807079e+00)) ((-1.777571e-14 -2.317495e+03 -9.638162e-15) (3.615800e-18 2.810917e+01 2.736068e-16))
0.00324822    	((1.350082e+02 2.897930e-14 5.192110e+03) (2.904331e+01 -3.682410e-19 2.770027e+00)) ((-4.230701e-15 -2.422096e+03 -8.007123e-15) (2.899252e-18 2.788287e+01 2.818544e-16))
0.00351412    	((1.486789e+02 2.374884e-14 4.373499e+03) (2.917482e+01 -1.228986e-19 2.626043e+00)) ((-1.573987e-14 -1.770796e+03 -5.544654e-15) (-6.575117e-19 2.808601e+01 2.359362e-16))
0.00362941    	((1.694709e+02 2.583043e-14 4.945498e+03) (2.903561e+01 -3.168248e-19 2.600938e+00)) ((-1.888394e-14 -1.996136e+03 -6.967290e-15) (-2.590063e-18 2.796734e+01 2.342430e-16))
0.00374978    	((1.935781e+02 3.557214e-14 4.547878e+03) (2.889648e+01 -6.598311e-19 2.568482e+00)) ((-1.713185e-14 -1.822499e+03 -3.687903e-15) (-2.732330e-18 2.785067e+01 2.289758e-16))
0.00387383    	((1.872968e+02 2.702052e-14 4.752236e+03) (2.873535e+01 -5.037185e-19 2.520887e+00)) ((-1.446022e-14 -1.910360e+03 -6.248263e-15) (-2.551936e-18 2.771256e+01 2.286366e-16))
0.00399982    	((2.161575e+02 3.671547e-14 4.040962e+03) (2.856310e+01 -5.820746e-19 2.470988e+00)) ((-1.082027e-14 -1.608375e+03 -2.045642e-15) (-2.006321e-18 2.756036e+01 2.308995e-16))
0.00412885    	((2.156944e+02 3.151662e-14 4.211708e+03) (2.834533e+01 -5.875784e-19 2.431259e+00)) ((-1.533601e-14 -1.624132e+03 -3.852778e-15) (3.019908e-19 2.735408e+01 2.381661e-16))
0.00426222    	((3.414843e+02 5.109820e-14 4.635082e+03) (2.816249e+01 -5.124338e-19 2.436857e+00)) ((-5.679326e-14 -1.737312e+03 -4.962291e-15) (5.264960e-18 2.717267e+01 2.520866e-16))
0.00440027    	((3.039814e+02 3.307819e-14 4.869230e+03) (2.796619e+01 -5.514646e-19 2.432922e+00)) ((-2.065500e-14 -1.757430e+03 -6.768609e-15) (8.244413e-18 2.697516e+01 2.644215e-16))
0.00454209    	((1.968389e+02 2.795264e-14 3.831612e+03) (2.767996e+01 -4.491146e-19 2.427927e+00)) ((-1.578735e-14 -1.437330e+03 -3.277951e-15) (1.127466e-17 2.668269e+01 2.883507e-16))
0.00468655    	((1.857497e+02 2.809171e-14 3.631485e+03) (2.860089e+01 7.797206e-19 2.323464e+00)) ((-1.497200e-14 -1.361211e+03 -2.420654e-15) (5.134477e-18 2.768207e+01 1.901383e-16))
0.0048324     	((1.877608e+02 2.815608e-14 3.499390e+03) (2.855054e+01 7.536373e-19 2.260743e+00)) ((-1.420376e-14 -1.299841e+03 -1.996844e-15) (5.972982e-18 2.766326e+01 1.909815e-16))
0.00499375    	((2.565866e+02 3.742796e-14 2.671995e+03) (2.849333e+01 6.055248e-19 2.275468e+00)) ((-4.291952e-15 -1.049765e+03 1.344733e-15) (3.340586e-18 2.762720e+01 1.832813e-16))
0.00516824    	((2.005542e+02 2.924917e-14 3.181896e+03) (2.833015e+01 3.968864e-19 2.231178e+00)) ((-1.146918e-14 -1.169737e+03 -9.228109e-16) (3.206950e-18 2.749272e+01 1.809280e-16))
0.00537714    	((1.844012e+02 2.813870e-14 3.152754e+03) (2.791237e+01 4.024347e-19 2.196223e+00)) ((-1.079587e-14 -1.182727e+03 -1.016564e-15) (5.747586e-18 2.707884e+01 2.020678e-16))
0.00562086    	((1.778961e+02 2.759308e-14 3.106118e+03) (2.721556e+01 5.346368e-19 2.174854e+00)) ((-1.011674e-14 -1.185157e+03 -1.156068e-15) (1.210449e-17 2.635669e+01 2.521923e-16))
0.00589216    	((1.685606e+02 2.723403e-14 3.064164e+03) (2.772279e+01 7.641026e-19 2.031978e+00)) ((-7.644652e-15 -1.249755e+03 -1.410591e-15) (4.061788e-18 2.697529e+01 1.754469e-16))
0.00618008    	((1.935726e+02 2.870986e-14 2.730091e+03) (2.751413e+01 9.644723e-19 1.948995e+00)) ((-9.981131e-15 -1.080245e+03 -4.790381e-16) (7.158624e-18 2.679771e+01 1.822539e-16))
0.00647412    	((2.192875e+02 3.035247e-14 2.446945e+03) (2.731537e+01 7.127753e-19 1.830979e+00)) ((-8.056189e-15 -8.214599e+02 1.980579e-15) (9.562364e-18 2.663872e+01 1.932033e-16))
0.00664753    	((2.966010e+02 3.263760e-14 2.128182e+03) (2.715615e+01 9.586857e-20 1.774259e+00)) ((8.341229e-15 -7.511121e+02 4.184404e-15) (7.776368e-18 2.650052e+01 1.926911e-16))
0.00682322    	((6.169060e+02 2.193521e-14 6.722082e+02) (2.689461e+01 5.046600e-19 1.777370e+00)) ((5.262864e-14 -3.718981e+02 5.809304e-15) (6.951517e-18 2.624578e+01 1.997921e-16))
0.00700372    	((2.295442e+02 3.386574e-14 2.235205e+03) (2.640141e+01 2.474117e-19 1.773002e+00)) ((-2.499560e-14 -8.787885e+02 8.011198e-16) (8.226225e-18 2.575113e+01 2.328895e-16))
0.00720366    	((1.751699e+02 2.754740e-14 2.729433e+03) (2.600392e+01 -5.618542e-19 1.668034e+00)) ((-9.441595e-15 -9.899048e+02 2.459552e-16) (1.510984e-18 2.543659e+01 2.490363e-16))
0.00741344    	((1.856234e+02 2.751174e-14 2.628014e+03) (2.586394e+01 -7.829413e-19 1.560685e+00)) ((-6.808219e-15 -9.609249e+02 6.226563e-16) (-4.838813e-18 2.537751e+01 2.405903e-16))
0.00763045    	((1.924064e+02 2.750674e-14 2.541870e+03) (2.579880e+01 -7.420806e-19 1.479739e+00)) ((-4.721953e-15 -9.378095e+02 9.478344e-16) (-6.671319e-18 2.535744e+01 2.256270e-16))
0.00786832    	((1.583102e+02 2.689942e-14 2.657057e+03) (2.573078e+01 -6.912716e-19 1.391311e+00)) ((-9.363534e-15 -9.715497e+02 3.741870e-16) (-5.110410e-18 2.532629e+01 2.100529e-16))
0.00813206    	((1.749425e+02 2.905754e-14 2.274672e+03) (2.577922e+01 -6.763592e-19 1.269663e+00)) ((-1.371809e-14 -8.758334e+02 7.414712e-16) (-2.163920e-18 2.543540e+01 2.033473e-16))
0.00839006    	((1.648263e+02 2.688605e-14 2.695663e+03) (2.590876e+01 -8.162589e-19 1.102964e+00)) ((-2.545136e-15 -1.149480e+03 -3.875575e-16) (-2.324110e-18 2.565211e+01 1.938966e-16))
0.00864245    	((1.493420e+02 2.623383e-14 2.654646e+03) (2.599486e+01 -6.766380e-19 9.128627e-01)) ((-7.799819e-15 -1.008824e+03 1.711270e-16) (-5.413428e-18 2.582095e+01 1.820902e-16))
0.00888935    	((9.877324e+01 2.181259e-14 3.318829e+03) (2.604612e+01 -1.177134e-18 6.701273e-01)) ((-1.922667e-15 -1.502902e+03 -3.419917e-15) (-1.503870e-17 2.600059e+01 1.687952e-16))
0.00909898    	((1.580643e+02 2.749043e-14 2.544464e+03) (2.605448e+01 -1.543301e-18 4.883986e-01)) ((-6.747790e-15 -9.701490e+02 7.551626e-16) (-2.693856e-17 2.611061e+01 1.505931e-16))
0.00929365    	((1.491664e+02 2.651874e-14 2.599363e+03) (2.602305e+01 -2.544110e-18 3.523197e-01)) ((-7.280411e-15 -9.888493e+02 3.977385e-16) (-3.688948e-17 2.615095e+01 1.282584e-16))
0.00949191    	((1.478540e+02 2.650502e-14 2.550952e+03) (2.600231e+01 -2.699520e-18 2.641139e-01)) ((-7.774545e-15 -9.586055e+02 5.246344e-16) (-4.169873e-17 2.615193e+01 1.051962e-16))
0.00970207    	((1.463725e+02 2.646354e-14 2.506693e+03) (2.599427e+01 -1.097061e-18 1.786166e-01)) ((-7.794280e-15 -9.370755e+02 6.275570e-16) (-4.546800e-17 2.614188e+01 8.156555e-17))
0.00989278    	((1.462981e+02 2.640987e-14 2.523545e+03) (2.599343e+01 -2.430264e-19 5.292561e-02)) ((-7.458681e-15 -9.517340e+02 5.442854e-16) (-5.182838e-17 2.617022e+01 6.168358e-17))
0.0100641     	((1.573323e+02 2.646373e-14 2.360825e+03) (2.600705e+01 9.495018e-21 -1.057329e-01)) ((-4.265719e-15 -9.086175e+02 5.970979e-16) (-5.988884e-17 2.624460e+01 4.395808e-17))
0.0102243     	((1.707945e+02 2.668248e-14 2.140801e+03) (2.605385e+01 -1.076677e-19 -2.740636e-01)) ((-1.054738e-15 -8.401006e+02 7.701143e-16) (-6.706968e-17 2.636776e+01 2.670842e-17))
0.0103771     	((1.458070e+02 2.655698e-14 2.495715e+03) (2.606376e+01 -4.377351e-19 -4.384884e-01)) ((-7.859356e-15 -9.345830e+02 7.239843e-16) (-7.202745e-17 2.645753e+01 1.077729e-17))
0.0105251     	((1.468390e+02 2.663597e-14 2.474218e+03) (2.605919e+01 -9.241894e-19 -5.931570e-01)) ((-7.782959e-15 -9.255943e+02 7.877105e-16) (-7.444865e-17 2.653634e+01 -5.132735e-18))
0.0106665     	((1.471324e+02 2.674488e-14 2.452125e+03) (2.601930e+01 -1.635058e-18 -7.181236e-01)) ((-7.704175e-15 -9.132865e+02 9.267392e-16) (-7.246653e-17 2.657166e+01 -1.534421e-17))
0.010798      	((1.499636e+02 2.676007e-14 2.384108e+03) (2.595160e+01 -2.413366e-18 -8.172958e-01)) ((-6.765673e-15 -8.890033e+02 1.013318e-15) (-6.549633e-17 2.657431e+01 -2.245554e-17))
0.0109241     	((1.465913e+02 2.661833e-14 2.427300e+03) (2.588283e+01 -2.982020e-18 -8.983096e-01)) ((-7.592720e-15 -9.039507e+02 9.037782e-16) (-5.267170e-17 2.657114e+01 -2.490220e-17))
0.0110467     	((1.457831e+02 2.656510e-14 2.451256e+03) (2.585106e+01 -3.120235e-18 -9.856701e-01)) ((-7.419013e-15 -9.208534e+02 8.065234e-16) (-3.631365e-17 2.660807e+01 -2.173597e-17))
0.0111694     	((1.455563e+02 2.674205e-14 2.424725e+03) (2.579266e+01 -2.713511e-18 -1.073948e+00)) ((-7.467001e-15 -9.056458e+02 9.992020e-16) (-1.860899e-17 2.661542e+01 -1.888904e-17))
0.0112937     	((1.447700e+02 2.679201e-14 2.421153e+03) (2.575358e+01 -3.845922e-18 -1.171321e+00)) ((-7.306583e-15 -9.067356e+02 1.056228e-15) (1.777250e-18 2.664618e+01 -1.612683e-17))
0.0114199     	((1.442378e+02 2.686954e-14 2.395531e+03) (2.574513e+01 -3.336653e-18 -1.278304e+00)) ((-7.367787e-15 -8.925403e+02 1.188175e-15) (2.175710e-17 2.671222e+01 -5.593308e-18))
0.0115606     	((1.437438e+02 2.688515e-14 2.361974e+03) (2.574151e+01 -2.239838e-18 -1.404850e+00)) ((-7.304129e-15 -8.766313e+02 1.302097e-15) (4.264451e-17 2.679279e+01 2.222397e-18))
0.0117086     	((1.446716e+02 2.697620e-14 2.331149e+03) (2.573103e+01 -7.170870e-19 -1.543250e+00)) ((-7.294042e-15 -8.615305e+02 1.406008e-15) (6.448516e-17 2.687051e+01 1.651321e-17))
0.0118516     	((1.445605e+02 2.695475e-14 2.330839e+03) (2.571645e+01 8.090591e-19 -1.675643e+00)) ((-7.306545e-15 -8.630222e+02 1.381977e-15) (8.518992e-17 2.693974e+01 2.631766e-17))
0.0119897     	((1.725631e+02 2.468949e-14 1.783291e+03) (2.577225e+01 6.231006e-19 -1.793074e+00)) ((9.465508e-16 -7.217264e+02 5.686514e-16) (1.071595e-16 2.707620e+01 2.496897e-17))
0.0121255     	((1.452679e+02 2.690426e-14 2.308740e+03) (2.573771e+01 -2.834544e-19 -1.886522e+00)) ((-7.230999e-15 -8.584803e+02 1.356741e-15) (1.302741e-16 2.710433e+01 3.748689e-17))
0.0122612     	((1.447126e+02 2.703265e-14 2.305282e+03) (2.570836e+01 -1.370093e-18 -1.958974e+00)) ((-7.597827e-15 -8.540000e+02 1.446525e-15) (1.542694e-16 2.712935e+01 4.938669e-17))
0.012397      	((1.436556e+02 2.705646e-14 2.293639e+03) (2.567331e+01 -2.715271e-18 -2.007021e+00)) ((-7.930527e-15 -8.470400e+02 1.517567e-15) (1.808599e-16 2.713869e+01 7.116479e-17))
0.0125352     	((1.441961e+02 2.713651e-14 2.284955e+03) (2.559535e+01 -3.685913e-18 -2.034586e+00)) ((-8.084039e-15 -8.440940e+02 1.553538e-15) (2.066845e-16 2.709461e+01 8.873406e-17))
0.0126761     	((1.432609e+02 2.706668e-14 2.294477e+03) (2.548996e+01 -2.237476e-18 -2.051915e+00)) ((-8.011961e-15 -8.530519e+02 1.496590e-15) (2.270797e-16 2.701766e+01 1.079822e-16))
0.0128226     	((1.427440e+02 2.712458e-14 2.274920e+03) (2.546482e+01 -5.186202e-19 -2.079762e+00)) ((-7.840467e-15 -8.422222e+02 1.603905e-15) (2.434277e-16 2.703075e+01 1.353262e-16))
0.012969      	((1.426458e+02 2.711591e-14 2.279041e+03) (2.540258e+01 6.495979e-19 -2.114283e+00)) ((-7.452559e-15 -8.455661e+02 1.584933e-15) (2.548822e-16 2.700581e+01 1.450999e-16))
0.0131096     	((1.422108e+02 2.713063e-14 2.279099e+03) (2.538254e+01 -8.026595e-19 -2.158075e+00)) ((-7.344192e-15 -8.447920e+02 1.606568e-15) (2.674175e-16 2.702857e+01 1.519410e-16))
0.0132475     	((1.419724e+02 2.716828e-14 2.270768e+03) (2.537529e+01 -3.943408e-18 -2.207955e+00)) ((-7.320870e-15 -8.393709e+02 1.658720e-15) (2.816120e-16 2.706536e+01 1.629490e-16))
0.0133825     	((1.422557e+02 2.718866e-14 2.270925e+03) (2.540078e+01 -6.961430e-18 -2.263340e+00)) ((-7.230036e-15 -8.403331e+02 1.652051e-15) (2.951693e-16 2.713870e+01 1.692917e-16))
0.0135123     	((1.414862e+02 2.719655e-14 2.260844e+03) (2.540962e+01 -9.044357e-18 -2.317325e+00)) ((-7.306926e-15 -8.332933e+02 1.719781e-15) (3.070271e-16 2.719160e+01 1.720081e-16))
0.0136395     	((1.418034e+02 2.724436e-14 2.250262e+03) (2.544698e+01 -1.029507e-17 -2.373345e+00)) ((-7.305156e-15 -8.281097e+02 1.764534e-15) (3.179770e-16 2.727502e+01 1.762707e-16))
0.0137642     	((1.418756e+02 2.723798e-14 2.240897e+03) (2.551200e+01 -1.099321e-17 -2.427024e+00)) ((-8.414354e-15 -8.274594e+02 1.749729e-15) (3.283214e-16 2.738715e+01 1.824487e-16))
0.0138865     	((1.629474e+02 2.690539e-14 1.672104e+03) (2.559624e+01 -1.136321e-17 -2.469668e+00)) ((-3.505422e-14 -6.760386e+02 1.544794e-15) (3.375515e-16 2.751598e+01 1.851584e-16))
0.0140063     	((1.417657e+02 2.723454e-14 2.248240e+03) (2.567168e+01 -1.115930e-17 -2.495412e+00)) ((-7.150881e-15 -8.303807e+02 1.744485e-15) (3.456937e-16 2.763173e+01 1.855746e-16))
0.0141239     	((1.424319e+02 2.722734e-14 2.225657e+03) (2.575298e+01 -1.083971e-17 -2.496635e+00)) ((-8.776779e-15 -8.288440e+02 1.682037e-15) (3.539823e-16 2.774691e+01 1.926302e-16))
0.0142391     	((1.409311e+02 2.729851e-14 2.231551e+03) (2.579671e+01 -1.060501e-17 -2.471366e+00)) ((-7.805976e-15 -8.243047e+02 1.788714e-15) (3.604525e-16 2.781420e+01 1.905786e-16))
0.014352      	((1.416612e+02 2.745035e-14 2.211845e+03) (2.582404e+01 -1.021440e-17 -2.418637e+00)) ((-7.843563e-15 -8.151824e+02 1.874540e-15) (3.650620e-16 2.785260e+01 1.886385e-16))
0.014465      	((1.413512e+02 2.750540e-14 2.212563e+03) (2.585278e+01 -9.174515e-18 -2.344294e+00)) ((-7.664585e-15 -8.146384e+02 1.910702e-15) (3.676977e-16 2.788185e+01 1.924143e-16))
0.0145757     	((1.410104e+02 2.755978e-14 2.206444e+03) (2.584149e+01 -7.577039e-18 -2.256230e+00)) ((-7.620034e-15 -8.114500e+02 1.959963e-15) (3.673965e-16 2.785997e+01 1.884688e-16))
0.0146842     	((1.414645e+02 2.752732e-14 2.203401e+03) (2.582246e+01 -6.098985e-18 -2.180505e+00)) ((-7.669931e-15 -8.123464e+02 1.930497e-15) (3.670678e-16 2.783118e+01 1.871017e-16))
0.0147927     	((1.411508e+02 2.743062e-14 2.210793e+03) (2.587656e+01 -5.417148e-18 -2.129059e+00)) ((-7.512072e-15 -8.158021e+02 1.895334e-15) (3.681392e-16 2.788750e+01 1.897684e-16))
0.0148989     	((1.405853e+02 2.730627e-14 2.232568e+03) (2.586049e+01 -5.719653e-18 -2.086362e+00)) ((-7.370417e-15 -8.301337e+02 1.772618e-15) (3.694457e-16 2.786925e+01 1.836118e-16))
0.0150052     	((1.408786e+02 2.737740e-14 2.202534e+03) (2.590794e+01 -6.225438e-18 -2.062780e+00)) ((-7.533842e-15 -8.121446e+02 1.911469e-15) (3.720921e-16 2.792487e+01 1.866929e-16))
0.0151115     	((1.403466e+02 2.737602e-14 2.197192e+03) (2.594810e+01 -6.703171e-18 -2.051771e+00)) ((-7.462887e-15 -8.074410e+02 1.960700e-15) (3.749547e-16 2.797611e+01 1.880865e-16))
0.0152155     	((1.404468e+02 2.741097e-14 2.189825e+03) (2.597750e+01 -7.157569e-18 -2.055672e+00)) ((-7.477812e-15 -8.030158e+02 1.997830e-15) (3.775826e-16 2.801969e+01 1.847325e-16))
0.0153195     	((1.405584e+02 2.743020e-14 2.178635e+03) (2.598784e+01 -9.322610e-18 -2.067608e+00)) ((-7.533546e-15 -7.981752e+02 2.033554e-15) (3.827606e-16 2.804577e+01 1.851890e-16))
0.0154235     	((1.406843e+02 2.737654e-14 2.203518e+03) (2.603200e+01 -1.149986e-17 -2.091065e+00)) ((-7.334022e-15 -8.154608e+02 1.892786e-15) (3.878073e-16 2.811218e+01 1.816481e-16))
0.0155252     	((1.400557e+02 2.737231e-14 2.193072e+03) (2.607701e+01 -1.352099e-17 -2.123794e+00)) ((-7.327205e-15 -8.073539e+02 1.972484e-15) (3.930896e-16 2.818088e+01 1.846518e-16))
0.0156269     	((1.400398e+02 2.738341e-14 2.184136e+03) (2.610354e+01 -1.548570e-17 -2.159079e+00)) ((-7.316649e-15 -8.025549e+02 2.011216e-15) (3.980167e-16 2.823090e+01 1.845308e-16))
0.0157286     	((1.397885e+02 2.739864e-14 2.174548e+03) (2.614053e+01 -1.740497e-17 -2.197804e+00)) ((-7.291841e-15 -7.967407e+02 2.065336e-15) (4.020864e-16 2.829312e+01 1.776634e-16))
0.0158303     	((1.400351e+02 2.738012e-14 2.184214e+03) (2.617552e+01 -1.928580e-17 -2.237795e+00)) ((-7.409119e-15 -8.073062e+02 1.962378e-15) (4.068989e-16 2.835375e+01 1.825176e-16))
0.0159296     	((1.401625e+02 2.749713e-14 2.163953e+03) (2.619643e+01 -2.108863e-17 -2.278117e+00)) ((-7.651023e-15 -7.967734e+02 2.063133e-15) (4.101553e-16 2.839781e+01 1.777964e-16))
0.0160289     	((1.528516e+02 3.635259e-14 1.547032e+03) (2.626211e+01 -2.075490e-17 -2.308830e+00)) ((-2.181342e-14 -6.154956e+02 4.732329e-15) (4.108526e-16 2.848651e+01 1.848466e-16))
0.0161281     	((1.410374e+02 2.788774e-14 2.134708e+03) (2.628809e+01 -1.969268e-17 -2.333687e+00)) ((-7.931682e-15 -7.863557e+02 2.211622e-15) (4.092677e-16 2.853106e+01 1.810056e-16))
0.0162274     	((1.404930e+02 2.771564e-14 2.150909e+03) (2.630389e+01 -1.840273e-17 -2.341994e+00)) ((-7.513221e-15 -7.917442e+02 2.146990e-15) (4.065986e-16 2.855938e+01 1.816952e-16))
0.0163267     	((1.397916e+02 2.771846e-14 2.143092e+03) (2.628462e+01 -1.697583e-17 -2.331318e+00)) ((-7.387921e-15 -7.846990e+02 2.222671e-15) (4.017261e-16 2.854360e+01 1.758302e-16))
0.016426      	((1.399569e+02 2.779093e-14 2.131608e+03) (2.628681e+01 -1.556983e-17 -2.312198e+00)) ((-7.377841e-15 -7.791896e+02 2.274073e-15) (3.960271e-16 2.854767e+01 1.722216e-16))
0.0165253     	((1.397373e+02 2.782285e-14 2.129330e+03) (2.624186e+01 -1.419728e-17 -2.282930e+00)) ((-7.347664e-15 -7.793362e+02 2.283842e-15) (3.893630e-16 2.849768e+01 1.662167e-16))
0.0166245     	((1.394380e+02 2.773010e-14 2.140457e+03) (2.621948e+01 -1.474242e-17 -2.263161e+00)) ((-7.237642e-15 -7.859225e+02 2.222290e-15) (3.848585e-16 2.847491e+01 1.588076e-16))
0.0167238     	((1.401210e+02 2.769782e-14 2.130805e+03) (2.619692e+01 -1.616566e-17 -2.261540e+00)) ((-7.371036e-15 -7.801609e+02 2.240516e-15) (3.827135e-16 2.845808e+01 1.558872e-16))
0.0168231     	((1.395922e+02 2.756942e-14 2.145219e+03) (2.619316e+01 -1.774926e-17 -2.274132e+00)) ((-7.353952e-15 -7.895362e+02 2.150659e-15) (3.810314e-16 2.846614e+01 1.485415e-16))
0.0169224     	((1.396352e+02 2.757056e-14 2.126913e+03) (2.620006e+01 -1.934580e-17 -2.297456e+00)) ((-7.409305e-15 -7.773961e+02 2.245185e-15) (3.801937e-16 2.848942e+01 1.446514e-16))
0.0170217     	((1.396743e+02 2.751850e-14 2.130291e+03) (2.622245e+01 -2.095319e-17 -2.329974e+00)) ((-7.340570e-15 -7.794665e+02 2.214891e-15) (3.794363e-16 2.853254e+01 1.371966e-16))
0.0171209     	((1.392915e+02 2.747992e-14 2.125009e+03) (2.624467e+01 -2.043702e-17 -2.371798e+00)) ((-7.320900e-15 -7.749790e+02 2.252187e-15) (3.771918e-16 2.857912e+01 1.339973e-16))
0.0172202     	((1.395222e+02 2.753065e-14 2.109896e+03) (2.626126e+01 -1.913939e-17 -2.420995e+00)) ((-7.455194e-15 -7.677823e+02 2.302423e-15) (3.743986e-16 2.862282e+01 1.300264e-16))
0.0173195     	((1.396988e+02 2.749354e-14 2.113137e+03) (2.631814e+01 -1.817468e-17 -2.480689e+00)) ((-7.408211e-15 -7.691970e+02 2.277220e-15) (3.725923e-16 2.871425e+01 1.273520e-16))
0.0174188     	((1.392697e+02 2.745175e-14 2.111162e+03) (2.634559e+01 -1.765757e-17 -2.546145e+00)) ((-7.358347e-15 -7.670357e+02 2.295859e-15) (3.717374e-16 2.877811e+01 1.224332e-16))
0.017518      	((1.394644e+02 2.749723e-14 2.097872e+03) (2.641610e+01 -1.753248e-17 -2.627009e+00)) ((-7.471592e-15 -7.608634e+02 2.336516e-15) (3.728321e-16 2.889756e+01 1.197202e-16))
0.0176173     	((1.395552e+02 2.747731e-14 2.096902e+03) (2.644180e+01 -1.761241e-17 -2.710497e+00)) ((-7.369443e-15 -7.599684e+02 2.342231e-15) (3.747670e-16 2.897203e+01 1.151517e-16))
0.0177166     	((1.391906e+02 2.740022e-14 2.129272e+03) (2.650543e+01 -1.774067e-17 -2.800624e+00)) ((-7.405415e-15 -7.832071e+02 2.143979e-15) (3.769624e-16 2.908954e+01 1.112688e-16))
0.0178159     	((1.395105e+02 2.747437e-14 2.097079e+03) (2.656478e+01 -1.794513e-17 -2.889489e+00)) ((-7.415488e-15 -7.618366e+02 2.328509e-15) (3.787699e-16 2.920072e+01 1.066365e-16))
0.0179152     	((1.393069e+02 2.742431e-14 2.097138e+03) (2.660816e+01 -1.820341e-17 -2.974063e+00)) ((-7.297462e-15 -7.613174e+02 2.329580e-15) (3.804646e-16 2.929142e+01 1.047239e-16))
0.0180144     	((1.390559e+02 2.740966e-14 2.100960e+03) (2.666176e+01 -1.854915e-17 -3.056196e+00)) ((-7.303299e-15 -7.653436e+02 2.296546e-15) (3.814910e-16 2.939000e+01 1.007502e-16))
0.0181137     	((1.391071e+02 2.747506e-14 2.086065e+03) (2.671646e+01 -1.894213e-17 -3.132220e+00)) ((-7.376706e-15 -7.574355e+02 2.367467e-15) (3.817421e-16 2.948555e+01 9.600162e-17))
0.018213      	((1.391844e+02 2.753870e-14 2.076346e+03) (2.676243e+01 -1.926422e-17 -3.195246e+00)) ((-7.301395e-15 -7.522532e+02 2.415651e-15) (3.815501e-16 2.956534e+01 9.437534e-17))
0.0183123     	((1.445995e+02 3.841830e-14 1.533506e+03) (2.680203e+01 -1.959390e-17 -3.239601e+00)) ((-1.148291e-14 -5.908326e+02 5.618025e-15) (3.800216e-16 2.963002e+01 9.134682e-17))
0.0184115     	((1.400746e+02 2.818969e-14 2.043460e+03) (2.685222e+01 -1.997720e-17 -3.273590e+00)) ((-7.432916e-15 -7.443183e+02 2.574746e-15) (3.782127e-16 2.970138e+01 8.738151e-17))
0.0185108     	((1.393866e+02 2.763123e-14 2.070448e+03) (2.685628e+01 -2.070433e-17 -3.287105e+00)) ((-7.075441e-15 -7.522165e+02 2.410744e-15) (3.761926e-16 2.971506e+01 8.291866e-17))
0.0186101     	((1.392473e+02 2.759552e-14 2.062047e+03) (2.683695e+01 -2.186674e-17 -3.289910e+00)) ((-6.986647e-15 -7.465544e+02 2.442556e-15) (3.746788e-16 2.969915e+01 7.593748e-17))
0.0187094     	((1.390968e+02 2.756343e-14 2.066307e+03) (2.681132e+01 -2.350491e-17 -3.281195e+00)) ((-6.866510e-15 -7.504142e+02 2.396464e-15) (3.739874e-16 2.967140e+01 6.907311e-17))
0.0188087     	((1.390273e+02 2.761024e-14 2.059271e+03) (2.681739e+01 -2.606493e-17 -3.288719e+00)) ((-7.046070e-15 -7.464507e+02 2.451032e-15) (3.763454e-16 2.968241e+01 6.522180e-17))
0.0189079     	((1.391074e+02 2.754075e-14 2.058724e+03) (2.682126e+01 -2.822575e-17 -3.308955e+00)) ((-7.128580e-15 -7.433927e+02 2.477379e-15) (3.795076e-16 2.969498e+01 6.223735e-17))
0.0190072     	((1.391155e+02 2.753435e-14 2.054352e+03) (2.684585e+01 -2.984879e-17 -3.340096e+00)) ((-7.207640e-15 -7.405826e+02 2.504726e-15) (3.824423e-16 2.973316e+01 5.731396e-17))
0.0191065     	((1.392735e+02 2.756542e-14 2.051872e+03) (2.685146e+01 -3.102870e-17 -3.375742e+00)) ((-7.310754e-15 -7.404263e+02 2.507546e-15) (3.858565e-16 2.975226e+01 6.060414e-17))
0.0192058     	((1.392567e+02 2.760830e-14 2.049436e+03) (2.686058e+01 -3.199635e-17 -3.417216e+00)) ((-7.390869e-15 -7.398818e+02 2.521402e-15) (3.883361e-16 2.977688e+01 5.531121e-17))
0.0193051     	((1.387347e+02 2.749019e-14 2.068092e+03) (2.690858e+01 -3.158197e-17 -3.467670e+00)) ((-7.335771e-15 -7.514010e+02 2.417823e-15) (3.901644e-16 2.984574e+01 5.970788e-17))
0.0194043     	((1.388290e+02 2.748753e-14 2.054065e+03) (2.692088e+01 -2.992147e-17 -3.520865e+00)) ((-7.303756e-15 -7.406993e+02 2.507523e-15) (3.902092e-16 2.987710e+01 5.897757e-17))
0.0195036     	((1.389780e+02 2.755645e-14 2.041579e+03) (2.697468e+01 -2.852485e-17 -3.581604e+00)) ((-7.361049e-15 -7.343195e+02 2.565341e-15) (3.905388e-16 2.995513e+01 6.014342e-17))
0.0196029     	((1.390132e+02 2.751743e-14 2.041691e+03) (2.699353e+01 -2.592563e-17 -3.643685e+00)) ((-7.351461e-15 -7.333824e+02 2.563953e-15) (3.895001e-16 2.999617e+01 6.287374e-17))
0.0197022     	((1.391073e+02 2.751875e-14 2.043891e+03) (2.703597e+01 -2.327949e-17 -3.711608e+00)) ((-7.399500e-15 -7.356463e+02 2.538038e-15) (3.882191e-16 3.006426e+01 6.509833e-17))
0.0198014     	((1.390390e+02 2.757812e-14 2.042483e+03) (2.705468e+01 -2.078586e-17 -3.780319e+00)) ((-7.483000e-15 -7.367719e+02 2.537506e-15) (3.867230e-16 3.010705e+01 6.648418e-17))
0.0199007     	((1.390240e+02 2.752140e-14 2.036515e+03) (2.707967e+01 -1.843643e-17 -3.851580e+00)) ((-7.376991e-15 -7.306662e+02 2.585436e-15) (3.850995e-16 3.015703e+01 6.854289e-17))
0.02          	((1.393335e+02 2.759172e-14 2.028111e+03) (2.712750e+01 -1.617223e-17 -3.925522e+00)) ((-7.465630e-15 -7.278308e+02 2.605241e-15) (3.831052e-16 3.023212e+01 6.945089e-17))
0.0201105     	((1.389645e+02 2.755622e-14 2.020423e+03) (2.714084e+01 -1.385341e-17 -3.997278e+00)) ((-7.350767e-15 -7.239019e+02 2.640206e-15) (3.803093e-16 3.027186e+01 6.753532e-17))
0.0202235     	((1.389381e+02 2.753374e-14 2.014913e+03) (2.716936e+01 -1.158447e-17 -4.069996e+00)) ((-7.313071e-15 -7.204885e+02 2.662678e-15) (3.772600e-16 3.032737e+01 7.006955e-17))
0.0203378     	((1.390759e+02 2.759446e-14 2.007982e+03) (2.720707e+01 -9.303354e-18 -4.140645e+00)) ((-7.404476e-15 -7.183992e+02 2.680676e-15) (3.729848e-16 3.039130e+01 6.746608e-17))
0.0204535     	((1.389269e+02 2.755878e-14 2.008932e+03) (2.722142e+01 -9.914195e-18 -4.199909e+00)) ((-7.367067e-15 -7.190632e+02 2.668777e-15) (3.707812e-16 3.042575e+01 6.669104e-17))
0.0205705     	((1.385705e+02 2.754440e-14 2.008806e+03) (2.722694e+01 -1.071106e-17 -4.245534e+00)) ((-7.318220e-15 -7.206899e+02 2.652011e-15) (3.670478e-16 3.044542e+01 6.345518e-17))