# Forces      
# CofR        : (0.000000e+00 0.000000e+00 -1.000000e+00)
# Time        forces(pressure viscous)	moments(pressure viscous)
0             	((0.000000e+00 6.445847e-15 -6.821210e-13) (1.483815e+01 4.350120e-18 2.224915e+00)) ((-1.025239e-13 1.136868e-13 -3.521632e-15) (-5.031068e-18 1.378027e+01 1.083862e-17))
1.19976e-05   	((1.938662e+05 1.096295e-11 1.254426e+06) (1.504147e+01 3.587817e-18 1.946978e+00)) ((-3.138692e-11 -2.319405e+05 6.215353e-12) (2.832186e-18 1.406138e+01 8.714929e-18))
2.63878e-05   	((2.360569e+04 1.999019e-12 2.111336e+05) (1.503827e+01 3.316820e-18 1.844779e+00)) ((-5.177775e-12 -5.286017e+04 1.193565e-12) (4.831554e-18 1.409104e+01 8.520955e-18))
4.36511e-05   	((1.384765e+04 1.179440e-12 1.236415e+05) (1.504796e+01 2.975388e-18 1.782687e+00)) ((-3.099259e-12 -3.109236e+04 6.937086e-13) (5.612153e-18 1.412435e+01 8.256081e-18))
6.43527e-05   	((9.492007e+03 8.386806e-13 8.632775e+04) (1.506262e+01 2.595798e-18 1.723016e+00)) ((-2.201821e-12 -2.241214e+04 4.902200e-13) (5.960112e-18 1.416621e+01 7.982832e-18))
8.91792e-05   	((6.806446e+03 6.068079e-13 6.197271e+04) (1.508416e+01 2.273379e-18 1.662052e+00)) ((-1.605866e-12 -1.629357e+04 3.524999e-13) (5.937202e-18 1.421970e+01 8.120152e-18))
0.000118941   	((4.742576e+03 4.810137e-13 4.992422e+04) (1.510549e+01 2.428581e-18 1.583619e+00)) ((-1.365568e-12 -1.566707e+04 2.625672e-13) (5.556923e-18 1.428945e+01 1.006953e-17))
0.000154634   	((3.884609e+03 3.574652e-13 3.604762e+04) (1.512665e+01 2.186392e-18 1.496531e+00)) ((-9.727756e-13 -1.005034e+04 2.040543e-13) (5.078969e-18 1.436193e+01 1.053598e-17))
0.000197405   	((3.129677e+03 2.733302e-13 2.729086e+04) (1.514874e+01 1.679792e-18 1.402351e+00)) ((-7.613051e-13 -7.508707e+03 1.559868e-13) (4.537353e-18 1.444273e+01 1.087177e-17))
0.000247411   	((2.559759e+03 2.222405e-13 2.222967e+04) (1.518077e+01 1.224719e-18 1.298917e+00)) ((-6.218432e-13 -6.012338e+03 1.264447e-13) (2.837568e-18 1.453676e+01 1.286107e-17))
0.000304499   	((2.094598e+03 1.816429e-13 1.812425e+04) (1.523918e+01 9.038992e-19 1.213602e+00)) ((-5.166877e-13 -4.895441e+03 1.025088e-13) (-1.404338e-18 1.464635e+01 1.815907e-17))
0.000368864   	((1.691890e+03 1.236789e-13 1.855623e+04) (1.532419e+01 1.167430e-18 1.127477e+00)) ((-6.119722e-13 -6.602469e+03 2.675798e-14) (-3.060996e-19 1.479400e+01 1.798065e-17))
0.00044025    	((1.521397e+03 1.208885e-13 1.375991e+04) (1.543427e+01 1.277358e-18 1.064002e+00)) ((-4.247285e-13 -4.028051e+03 5.612215e-14) (-1.629598e-18 1.495240e+01 1.832700e-17))
0.000511118   	((1.534678e+03 1.123679e-13 1.188058e+04) (1.557261e+01 1.358949e-18 1.040968e+00)) ((-3.917132e-13 -3.187445e+03 5.703562e-14) (-1.359388e-18 1.512427e+01 1.822610e-17))
0.000579984   	((1.386089e+03 1.073620e-13 1.121282e+04) (1.574563e+01 1.237326e-18 1.038420e+00)) ((-3.527655e-13 -3.027347e+03 5.534320e-14) (7.498983e-19 1.531620e+01 1.322118e-17))
0.000651381   	((1.462947e+03 9.837807e-14 1.051964e+04) (1.594976e+01 2.363612e-19 1.068716e+00)) ((-3.405390e-13 -2.753121e+03 5.117660e-14) (9.476835e-18 1.551521e+01 2.636765e-18))
0.000720731   	((9.373802e+02 4.402193e-14 1.366350e+04) (1.613448e+01 6.528372e-19 1.055913e+00)) ((-2.065878e-13 -5.842857e+03 4.496024e-15) (2.392332e-18 1.573936e+01 -8.262931e-18))
0.000794882   	((1.235740e+03 8.283786e-14 9.415300e+03) (1.635831e+01 6.963912e-19 1.072826e+00)) ((-2.844952e-13 -2.631872e+03 4.148279e-14) (2.085561e-18 1.597400e+01 -1.334549e-17))
0.000866543   	((1.235433e+03 7.467733e-14 8.237532e+03) (1.657379e+01 7.481718e-19 1.101854e+00)) ((-2.764978e-13 -2.178352e+03 3.927913e-14) (2.279676e-18 1.619204e+01 -1.681857e-17))
0.000937407   	((1.099855e+03 7.882194e-14 8.792510e+03) (1.678921e+01 1.241118e-18 1.128892e+00)) ((-2.812088e-13 -2.771332e+03 3.918526e-14) (2.059940e-18 1.640821e+01 -1.938413e-17))
0.000999908   	((1.189395e+03 7.526526e-14 8.210115e+03) (1.699771e+01 1.799051e-18 1.183829e+00)) ((-2.685057e-13 -2.264764e+03 3.794370e-14) (6.200037e-19 1.658442e+01 -2.040540e-17))
0.0010641     	((6.521911e+02 5.983478e-14 1.326313e+04) (1.717953e+01 1.157676e-18 1.159829e+00)) ((-3.058653e-13 -6.804804e+03 7.576760e-15) (2.529286e-18 1.681036e+01 -1.760172e-17))
0.00112939    	((1.118188e+03 7.009664e-14 7.776282e+03) (1.734556e+01 1.022706e-18 1.174173e+00)) ((-2.644895e-13 -2.402750e+03 3.387203e-14) (3.058142e-18 1.698445e+01 -1.869609e-17))
0.00119492    	((1.080115e+03 7.174919e-14 7.960750e+03) (1.750516e+01 1.384594e-18 1.185510e+00)) ((-2.626759e-13 -2.513244e+03 3.497590e-14) (2.960203e-18 1.715107e+01 -1.963639e-17))
0.00125781    	((1.238965e+03 6.731211e-14 7.038933e+03) (1.766453e+01 2.040390e-18 1.198072e+00)) ((-2.557766e-13 -1.887458e+03 3.366391e-14) (2.264960e-18 1.730778e+01 -2.063462e-17))
0.00132244    	((1.252870e+03 6.666375e-14 6.389406e+03) (1.781749e+01 2.247362e-18 1.280166e+00)) ((-2.661486e-13 -1.766607e+03 3.196332e-14) (2.989401e-18 1.740064e+01 -2.193497e-17))
0.00138867    	((4.106872e+02 8.092474e-14 1.764185e+04) (1.795812e+01 8.927791e-19 1.223696e+00)) ((-3.703386e-13 -1.064568e+04 1.552426e-14) (4.022916e-18 1.760993e+01 -2.229341e-17))
0.00143924    	((1.902047e+03 7.563711e-14 6.781607e+03) (1.806546e+01 8.202930e-19 1.219577e+00)) ((-2.851287e-13 -9.175095e+02 4.159172e-14) (4.290125e-18 1.772865e+01 -2.277013e-17))
0.00148783    	((1.942726e+03 8.247020e-14 7.338525e+03) (1.816570e+01 6.619216e-19 1.205898e+00)) ((-3.004369e-13 -1.147216e+03 4.588002e-14) (4.645178e-18 1.784279e+01 -2.317109e-17))
0.00153855    	((2.382620e+03 9.256034e-14 6.529427e+03) (1.825815e+01 1.030624e-18 1.212164e+00)) ((-3.510740e-13 -8.899810e+02 5.164776e-14) (4.141219e-18 1.794333e+01 -2.284868e-17))
0.00159175    	((2.870578e+03 1.080897e-13 8.218347e+03) (1.837769e+01 8.251746e-19 1.206472e+00)) ((-4.028319e-13 -1.266896e+03 6.106160e-14) (4.054111e-18 1.807283e+01 -2.243336e-17))
0.00164542    	((1.258221e+04 2.836039e-13 1.532661e+04) (1.863572e+01 1.047850e-18 1.163481e+00)) ((-1.223803e-12 1.802020e+03 1.644311e-13) (3.771171e-18 1.834586e+01 -2.259120e-17))
0.00170038    	((1.000515e+03 7.804685e-14 8.160880e+03) (1.876594e+01 1.378720e-18 1.125175e+00)) ((-3.020351e-13 -2.762836e+03 3.515426e-14) (3.113656e-18 1.849470e+01 -2.253879e-17))
0.00175583    	((1.199672e+03 8.066217e-14 5.812644e+03) (1.886655e+01 1.108902e-18 1.147529e+00)) ((-3.188285e-13 -2.075136e+03 3.687854e-14) (3.019122e-18 1.859955e+01 -2.449080e-17))
0.00181162    	((7.624756e+02 8.698925e-14 8.098661e+03) (1.897479e+01 1.234316e-18 1.137029e+00)) ((-2.776739e-13 -2.958197e+03 4.641697e-14) (2.528181e-18 1.871953e+01 -2.613761e-17))
0.00186828    	((7.290619e+02 5.239999e-14 7.818004e+03) (1.908931e+01 1.452499e-18 1.111190e+00)) ((-2.028860e-13 -3.221126e+03 2.103795e-14) (1.429109e-18 1.885110e+01 -3.019439e-17))
0.00192584    	((5.456431e+02 6.889900e-14 7.680499e+03) (1.917871e+01 1.189151e-18 1.138366e+00)) ((-2.458669e-13 -3.452441e+03 3.264160e-14) (3.878203e-18 1.894446e+01 -3.085975e-17))
0.0019818     	((9.947330e+02 7.175994e-14 6.009918e+03) (1.926486e+01 1.184727e-18 1.137742e+00)) ((-2.817180e-13 -2.424164e+03 3.419218e-14) (4.663684e-18 1.903711e+01 -3.090696e-17))
0.00203741    	((1.764937e+02 7.444191e-14 1.485011e+04) (1.938529e+01 1.328288e-18 1.120071e+00)) ((-3.511374e-13 -9.455977e+03 1.083713e-14) (4.712690e-18 1.917107e+01 -2.604968e-17))
0.00208787    	((1.102145e+03 6.698475e-14 4.540904e+03) (1.945944e+01 1.147019e-18 1.124997e+00)) ((-2.712814e-13 -1.601036e+03 3.774982e-14) (5.102039e-18 1.924895e+01 -2.039804e-17))
0.00213526    	((7.901273e+02 6.717450e-14 6.100906e+03) (1.953660e+01 1.233344e-18 1.126418e+00)) ((-2.411303e-13 -2.325391e+03 3.532977e-14) (5.442311e-18 1.933154e+01 -1.710540e-17))
0.00218488    	((8.290516e+02 7.621799e-14 7.292331e+03) (1.962297e+01 1.074247e-18 1.117987e+00)) ((-2.577076e-13 -2.805771e+03 3.950526e-14) (6.035404e-18 1.942552e+01 -1.487047e-17))
0.00223578    	((4.447073e+02 8.702612e-14 8.673035e+03) (1.972449e+01 1.309418e-18 1.121121e+00)) ((-2.660386e-13 -3.955879e+03 4.503866e-14) (6.463510e-18 1.951446e+01 -1.286785e-17))
0.00228772    	((6.502571e+02 1.204169e-13 1.176014e+04) (1.983892e+01 2.813208e-18 1.200121e+00)) ((-3.682449e-13 -6.740525e+03 6.481204e-14) (1.024997e-18 1.958245e+01 -1.313960e-17))
0.00233612    	((-5.014772e+02 6.736656e-14 1.835165e+04) (1.993479e+01 1.463713e-18 1.153893e+00)) ((-3.406864e-13 -1.245993e+04 -3.436478e-16) (2.017758e-18 1.972848e+01 -1.146921e-17))
0.00237626    	((5.850897e+02 3.992601e-14 3.800120e+03) (1.999698e+01 1.364241e-18 1.140297e+00)) ((-1.564499e-13 -1.001937e+03 2.072226e-14) (1.171808e-18 1.980315e+01 -1.247196e-17))
0.00241458    	((5.407149e+02 4.127380e-14 4.110264e+03) (2.005296e+01 1.349669e-18 1.124193e+00)) ((-1.605591e-13 -1.254345e+03 2.068994e-14) (1.701651e-19 1.987022e+01 -1.334874e-17))
0.00245566    	((6.772895e+02 4.037515e-14 3.398472e+03) (2.011724e+01 1.026839e-18 1.121482e+00)) ((-2.034767e-13 -1.377386e+03 1.838754e-14) (5.353044e-19 1.994150e+01 -1.401907e-17))
0.00249856    	((6.959231e+02 3.805300e-14 2.953599e+03) (2.017675e+01 9.715276e-19 1.136786e+00)) ((-1.945811e-13 -1.103714e+03 1.793467e-14) (1.926106e-18 2.000348e+01 -1.406464e-17))
0.00254321    	((2.949380e+02 5.224953e-14 6.594387e+03) (2.024724e+01 1.286845e-18 1.141869e+00)) ((-1.956837e-13 -3.249452e+03 2.238490e-14) (1.961648e-18 2.007349e+01 -1.315967e-17))
0.00258589    	((1.234463e+02 5.057378e-14 7.811296e+03) (2.030700e+01 8.448540e-19 1.128360e+00)) ((-2.094639e-13 -4.463649e+03 1.709347e-14) (2.740497e-18 2.014769e+01 -1.220178e-17))
0.00262765    	((3.274106e+02 3.727551e-14 4.366427e+03) (2.037586e+01 7.757261e-19 1.119501e+00)) ((-1.518518e-13 -1.809842e+03 1.650582e-14) (2.869823e-18 2.022504e+01 -1.277080e-17))
0.00267097    	((3.712907e+02 3.796279e-14 3.981023e+03) (2.045093e+01 9.439230e-19 1.106443e+00)) ((-1.537654e-13 -1.700890e+03 1.643432e-14) (2.456187e-18 2.031049e+01 -1.466412e-17))
0.00271429    	((7.317910e+02 4.670303e-14 2.058026e+03) (2.052856e+01 1.058202e-18 1.141817e+00)) ((-1.804822e-13 -1.061585e+03 1.882599e-14) (2.327095e-19 2.038599e+01 -2.364855e-17))
0.00275817    	((3.090183e+02 3.480255e-14 3.982359e+03) (2.060577e+01 1.003286e-18 1.147226e+00)) ((-1.425373e-13 -1.646784e+03 1.521164e-14) (-1.219717e-18 2.046883e+01 -2.996360e-17))
0.00280283    	((3.025145e+02 3.450078e-14 3.971213e+03) (2.068614e+01 1.007533e-18 1.144979e+00)) ((-1.425369e-13 -1.675520e+03 1.497701e-14) (-3.131971e-18 2.055724e+01 -3.667502e-17))
0.00284572    	((2.711752e+02 3.478012e-14 4.093702e+03) (2.077116e+01 9.954772e-19 1.141068e+00)) ((-1.424349e-13 -1.778257e+03 1.495684e-14) (-4.751985e-18 2.065099e+01 -4.300022e-17))
0.00288915    	((2.425082e+02 3.650484e-14 4.445761e+03) (2.086350e+01 9.819557e-19 1.136301e+00)) ((-1.482814e-13 -2.058203e+03 1.528148e-14) (-6.133098e-18 2.075233e+01 -4.858514e-17))
0.0029328     	((3.106185e+02 3.386821e-14 3.479512e+03) (2.095831e+01 9.362186e-19 1.136747e+00)) ((-1.617923e-13 -1.567359e+03 1.387802e-14) (-6.288871e-18 2.085498e+01 -5.396771e-17))
0.00297679    	((6.387138e+02 3.686084e-14 1.600038e+03) (2.107493e+01 8.470407e-19 1.166858e+00)) ((-2.508529e-13 -8.101994e+02 1.368384e-14) (-1.384204e-18 2.097227e+01 -6.043725e-17))
0.0030217     	((2.516431e+02 2.857602e-14 3.311324e+03) (2.118519e+01 7.648794e-19 1.174060e+00)) ((-1.230932e-13 -1.287484e+03 1.255598e-14) (-1.994000e-19 2.108935e+01 -6.244143e-17))
0.00306796    	((2.493353e+02 2.854962e-14 3.300146e+03) (2.131193e+01 6.093352e-19 1.171058e+00)) ((-1.253658e-13 -1.319047e+03 1.240364e-14) (3.035929e-19 2.122622e+01 -6.537621e-17))
0.00311566    	((2.656958e+02 2.766129e-14 3.001504e+03) (2.147120e+01 3.355093e-19 1.161130e+00)) ((-1.263291e-13 -1.176373e+03 1.191344e-14) (4.352658e-19 2.139794e+01 -6.963869e-17))
0.00316269    	((2.426511e+02 2.714487e-14 3.030899e+03) (2.164239e+01 -8.852100e-20 1.145151e+00)) ((-1.210699e-13 -1.193118e+03 1.174057e-14) (3.141338e-19 2.158366e+01 -7.381050e-17))
0.00321149    	((2.378142e+02 2.652853e-14 2.967017e+03) (2.182137e+01 -5.059194e-19 1.128837e+00)) ((-1.196176e-13 -1.167950e+03 1.144857e-14) (1.019095e-21 2.177949e+01 -7.774669e-17))
0.00326146    	((5.611893e+02 2.945166e-14 8.606221e+02) (2.202569e+01 -5.612115e-19 1.128645e+00)) ((-1.997931e-13 -4.575282e+02 1.130200e-14) (-4.834564e-19 2.200148e+01 -8.048232e-17))
0.00331113    	((2.383369e+02 2.614849e-14 2.880643e+03) (2.217598e+01 -7.879701e-19 1.101232e+00)) ((-1.191195e-13 -1.139574e+03 1.125608e-14) (-1.647565e-18 2.217675e+01 -8.019758e-17))
0.0033611     	((2.281393e+02 2.547517e-14 2.835068e+03) (2.231887e+01 -1.086756e-18 1.062884e+00)) ((-1.158203e-13 -1.114437e+03 1.097353e-14) (-3.213221e-18 2.234996e+01 -7.771682e-17))
0.00341106    	((2.332187e+02 2.511879e-14 2.784656e+03) (2.246177e+01 -1.305822e-18 1.008058e+00)) ((-1.145724e-13 -1.077627e+03 1.085820e-14) (-5.785836e-18 2.253320e+01 -7.239230e-17))
0.00346044    	((2.038129e+02 2.410578e-14 2.725984e+03) (2.259476e+01 -1.390921e-18 9.426991e-01)) ((-1.095525e-13 -1.051386e+03 1.039800e-14) (-8.967788e-18 2.271486e+01 -6.585105e-17))
0.00351086    	((1.968037e+02 2.415484e-14 2.755044e+03) (2.274586e+01 -1.623776e-18 8.712156e-01)) ((-1.097429e-13 -1.088529e+03 1.033640e-14) (-1.255634e-17 2.291948e+01 -5.613599e-17))
0.00356191    	((1.888479e+02 2.437473e-14 2.728940e+03) (2.308989e+01 -2.141291e-18 8.286874e-01)) ((-1.101955e-13 -1.088826e+03 1.034683e-14) (-1.487423e-17 2.329724e+01 -4.488886e-17))
0.00361377    	((4.843805e+02 4.391269e-14 9.449151e+02) (2.359564e+01 -2.583523e-18 8.008717e-01)) ((-2.168594e-13 -5.261845e+02 1.521214e-14) (-1.739257e-17 2.382948e+01 -2.203119e-17))
0.00366662    	((1.835289e+02 2.391833e-14 2.779563e+03) (2.412443e+01 -2.686803e-18 7.552269e-01)) ((-1.079490e-13 -1.120594e+03 1.017901e-14) (-2.192049e-17 2.438737e+01 -5.571382e-18))
0.00372035    	((2.050123e+02 2.284832e-14 2.573139e+03) (2.473565e+01 -2.828385e-18 7.096505e-01)) ((-1.055145e-13 -9.796356e+02 9.835382e-15) (-2.683542e-17 2.502572e+01 1.140232e-17))
0.00377517    	((1.751435e+02 2.174839e-14 2.491331e+03) (2.545515e+01 -2.957665e-18 6.674721e-01)) ((-1.007871e-13 -9.469758e+02 9.309694e-15) (-3.209315e-17 2.576745e+01 2.844989e-17))
0.0038317     	((1.700178e+02 2.129437e-14 2.441438e+03) (2.619227e+01 -2.933045e-18 6.226796e-01)) ((-9.946424e-14 -9.289420e+02 9.072020e-15) (-3.763786e-17 2.652875e+01 4.460692e-17))
0.00389071    	((1.923752e+02 2.244457e-14 2.198482e+03) (2.686826e+01 -2.848741e-18 5.736200e-01)) ((-1.075160e-13 -8.400576e+02 9.222794e-15) (-4.346128e-17 2.723608e+01 6.034300e-17))
0.00394664    	((1.767183e+02 2.118727e-14 2.296638e+03) (2.742009e+01 -2.768734e-18 5.287271e-01)) ((-1.010739e-13 -8.717694e+02 8.893958e-15) (-4.904853e-17 2.782073e+01 7.333287e-17))
0.00400317    	((2.029393e+02 2.217689e-14 2.070294e+03) (2.790473e+01 -2.920521e-18 5.144122e-01)) ((-1.014895e-13 -8.074132e+02 9.089231e-15) (-5.627341e-17 2.832957e+01 8.495603e-17))
0.00406155    	((3.915515e+02 2.916279e-14 9.012697e+02) (2.840396e+01 -3.178947e-18 5.065245e-01)) ((-1.203410e-13 -4.283778e+02 1.090201e-14) (-6.273947e-17 2.885286e+01 9.881660e-17))
0.00411787    	((1.548570e+02 2.023559e-14 2.340062e+03) (2.876450e+01 -2.920039e-18 4.858787e-01)) ((-9.612660e-14 -8.952799e+02 8.539427e-15) (-6.725754e-17 2.923465e+01 1.062002e-16))
0.00417626    	((1.582680e+02 2.009888e-14 2.311291e+03) (2.908152e+01 -2.487211e-18 4.476637e-01)) ((-9.638485e-14 -8.890849e+02 8.433793e-15) (-7.181267e-17 2.957665e+01 1.126986e-16))
0.00423712    	((1.437378e+02 1.958510e-14 2.263814e+03) (2.935701e+01 -1.981367e-18 3.905634e-01)) ((-9.434474e-14 -8.759232e+02 8.154294e-15) (-7.645234e-17 2.988014e+01 1.183689e-16))
0.00429638    	((1.533067e+02 1.997535e-14 2.141349e+03) (2.959757e+01 -1.615897e-18 3.224134e-01)) ((-9.503425e-14 -8.374658e+02 8.218276e-15) (-7.962182e-17 3.014873e+01 1.219457e-16))
0.00435655    	((1.491371e+02 1.953902e-14 2.191791e+03) (2.987367e+01 -1.466993e-18 2.352195e-01)) ((-9.466107e-14 -8.527625e+02 8.082469e-15) (-8.252198e-17 3.046046e+01 1.221434e-16))
0.00441789    	((1.447958e+02 1.918813e-14 2.178149e+03) (3.018304e+01 -1.341645e-18 9.547221e-02)) ((-9.352945e-14 -8.470632e+02 7.918008e-15) (-8.599524e-17 3.082627e+01 1.219503e-16))
0.00447714    	((1.476461e+02 1.918672e-14 2.168656e+03) (3.053544e+01 -1.070534e-18 -6.667139e-02)) ((-9.358319e-14 -8.399960e+02 7.947452e-15) (-8.938286e-17 3.124578e+01 1.200831e-16))
0.00453899    	((1.382877e+02 1.886840e-14 2.164279e+03) (3.091775e+01 -8.852541e-19 -2.809336e-01)) ((-9.197599e-14 -8.409915e+02 7.785398e-15) (-9.336374e-17 3.171623e+01 1.171746e-16))
0.00460422    	((1.381087e+02 1.870340e-14 2.149333e+03) (3.136170e+01 -8.807525e-19 -5.768156e-01)) ((-9.192409e-14 -8.417695e+02 7.666983e-15) (-9.680033e-17 3.228370e+01 1.140714e-16))
0.00466581    	((1.405525e+02 1.852738e-14 2.108011e+03) (3.185866e+01 -1.097722e-18 -9.234242e-01)) ((-9.138481e-14 -8.157577e+02 7.639887e-15) (-9.889433e-17 3.292973e+01 1.112891e-16))
0.0047297     	((2.782163e+02 1.454286e-14 1.905559e+02) (3.249341e+01 -1.732389e-18 -1.349527e+00)) ((-9.535181e-14 -2.412685e+02 5.801542e-15) (-1.015255e-16 3.375572e+01 1.024823e-16))
0.00479203    	((2.166878e+02 1.935258e-14 2.056154e+03) (3.312989e+01 -2.185171e-18 -1.890588e+00)) ((-9.671787e-14 -7.695222e+02 7.917656e-15) (-1.051923e-16 3.463128e+01 9.602021e-17))
0.00485786    	((1.760591e+02 1.887630e-14 2.054306e+03) (3.389252e+01 -2.401910e-18 -2.580223e+00)) ((-9.434836e-14 -7.905841e+02 7.760844e-15) (-1.108631e-16 3.570255e+01 8.883432e-17))
0.00492516    	((1.341846e+02 1.778760e-14 2.008745e+03) (3.473166e+01 -2.117667e-18 -3.418333e+00)) ((-8.906790e-14 -7.711834e+02 7.302577e-15) (-1.186818e-16 3.691846e+01 8.223160e-17))
0.00499042    	((1.364157e+02 1.774529e-14 2.003176e+03) (3.559135e+01 -1.811527e-18 -4.350310e+00)) ((-8.904003e-14 -7.651676e+02 7.300788e-15) (-1.266440e-16 3.819865e+01 7.564119e-17))
0.00505927    	((1.319193e+02 1.771043e-14 2.021698e+03) (3.650441e+01 -1.232680e-18 -5.423240e+00)) ((-8.897432e-14 -7.866620e+02 7.224974e-15) (-1.347559e-16 3.959695e+01 6.783154e-17))
0.00512749    	((1.348292e+02 1.752686e-14 1.971532e+03) (3.739033e+01 9.901096e-19 -6.561858e+00)) ((-8.839712e-14 -7.538379e+02 7.194445e-15) (-1.435833e-16 4.099750e+01 6.252754e-17))
0.00519667    	((1.338659e+02 1.712800e-14 1.928211e+03) (3.827979e+01 2.131353e-18 -7.763036e+00)) ((-8.694491e-14 -7.266946e+02 7.020704e-15) (-1.503215e-16 4.243180e+01 5.817822e-17))
0.00526457    	((1.363472e+02 1.708466e-14 1.912815e+03) (3.918753e+01 3.469172e-18 -8.979681e+00)) ((-8.707953e-14 -7.187627e+02 7.009549e-15) (-1.564711e-16 4.389659e+01 5.392449e-17))
0.00533645    	((1.340074e+02 1.708031e-14 1.920868e+03) (4.004904e+01 3.462448e-18 -1.025050e+01)) ((-8.714120e-14 -7.304862e+02 6.971633e-15) (-1.605004e-16 4.533916e+01 4.926678e-17))
0.00540833    	((1.335176e+02 1.675229e-14 1.874547e+03) (4.078957e+01 3.128292e-18 -1.149362e+01)) ((-8.592853e-14 -7.026442e+02 6.843557e-15) (-1.630019e-16 4.664571e+01 4.555874e-17))
0.00548057    	((1.327284e+02 1.657453e-14 1.854256e+03) (4.140636e+01 1.867596e-18 -1.269466e+01)) ((-8.525118e-14 -6.892230e+02 6.774063e-15) (-1.634933e-16 4.780752e+01 4.222520e-17))
0.00555541    	((1.305231e+02 1.659322e-14 1.867447e+03) (4.191217e+01 -3.677290e-19 -1.386359e+01)) ((-8.542264e-14 -7.037315e+02 6.740896e-15) (-1.621774e-16 4.884281e+01 3.960847e-17))
0.00563025    	((1.705601e+02 2.134919e-14 9.885711e+02) (4.232746e+01 -1.237904e-18 -1.494127e+01)) ((-1.059432e-13 -4.419358e+02 8.129082e-15) (-1.612960e-16 4.974925e+01 4.066589e-17))
0.0057051     	((1.559665e+02 1.924328e-14 1.344749e+03) (4.262182e+01 -2.457864e-18 -1.593926e+01)) ((-9.689142e-14 -5.376596e+02 7.542317e-15) (-1.602543e-16 5.049767e+01 3.983689e-17))
0.00578033    	((1.337575e+02 1.645509e-14 1.792581e+03) (4.280133e+01 -4.416459e-18 -1.686682e+01)) ((-8.511851e-14 -6.640956e+02 6.698008e-15) (-1.590271e-16 5.109758e+01 3.650207e-17))
0.00585557    	((1.325986e+02 1.636498e-14 1.797483e+03) (4.289658e+01 -5.305551e-18 -1.771832e+01)) ((-8.487767e-14 -6.709463e+02 6.632607e-15) (-1.596600e-16 5.157887e+01 3.201621e-17))
0.00592962    	((1.312610e+02 1.639927e-14 1.803038e+03) (4.292664e+01 -5.982322e-18 -1.848790e+01)) ((-8.502291e-14 -6.764263e+02 6.646289e-15) (-1.615005e-16 5.195840e+01 2.511410e-17))
0.00600368    	((1.319747e+02 1.624479e-14 1.776931e+03) (4.289720e+01 -6.985342e-18 -1.919226e+01)) ((-8.451450e-14 -6.599639e+02 6.597543e-15) (-1.642687e-16 5.224939e+01 1.675003e-17))
0.0060762     	((1.327170e+02 1.624046e-14 1.775560e+03) (4.282019e+01 -8.059192e-18 -1.982649e+01)) ((-8.457554e-14 -6.593806e+02 6.603034e-15) (-1.682822e-16 5.246152e+01 7.489387e-18))
0.00614948    	((1.316338e+02 1.607537e-14 1.762712e+03) (4.269787e+01 -9.265946e-18 -2.041108e+01)) ((-8.396245e-14 -6.517958e+02 6.530246e-15) (-1.737662e-16 5.260610e+01 -2.543801e-18))
0.00622355    	((1.276245e+02 1.592111e-14 1.770720e+03) (4.254081e+01 -1.053241e-17 -2.094751e+01)) ((-8.329132e-14 -6.590112e+02 6.429051e-15) (-1.810751e-16 5.269431e+01 -1.306041e-17))
0.00629842    	((1.305765e+02 1.582393e-14 1.732432e+03) (4.234834e+01 -1.187445e-17 -2.142940e+01)) ((-8.324298e-14 -6.378409e+02 6.402514e-15) (-1.906061e-16 5.272124e+01 -2.280785e-17))
0.00637412    	((1.289764e+02 1.568819e-14 1.730403e+03) (4.213565e+01 -1.309191e-17 -2.185131e+01)) ((-8.255206e-14 -6.342078e+02 6.355998e-15) (-2.029651e-16 5.269923e+01 -3.114383e-17))
0.00645067    	((1.291907e+02 1.557788e-14 1.715336e+03) (4.192027e+01 -1.431462e-17 -2.220748e+01)) ((-8.229664e-14 -6.270258e+02 6.302350e-15) (-2.179797e-16 5.264268e+01 -3.593017e-17))
0.00652809    	((1.281059e+02 1.565458e-14 1.726974e+03) (4.169996e+01 -1.615893e-17 -2.249622e+01)) ((-8.271577e-14 -6.403095e+02 6.300655e-15) (-2.339322e-16 5.254745e+01 -3.837670e-17))
0.00660642    	((1.288773e+02 1.544164e-14 1.692885e+03) (4.147569e+01 -1.736692e-17 -2.270851e+01)) ((-8.195579e-14 -6.185201e+02 6.232659e-15) (-2.516204e-16 5.240810e+01 -3.771267e-17))
0.0066852     	((1.293423e+02 1.565764e-14 1.665391e+03) (4.125991e+01 -1.916600e-17 -2.287407e+01)) ((-8.199798e-14 -6.089986e+02 6.289006e-15) (-2.637322e-16 5.225058e+01 -3.475312e-17))
0.00676446    	((1.590172e+02 2.864020e-14 7.216286e+02) (4.112131e+01 -2.188923e-17 -2.292304e+01)) ((-9.037270e-14 -3.210783e+02 1.019648e-14) (-2.696422e-16 5.212580e+01 -3.412699e-17))
0.00684467    	((1.307420e+02 1.551749e-14 1.662280e+03) (4.089588e+01 -2.487437e-17 -2.295432e+01)) ((-8.140091e-14 -6.037376e+02 6.249212e-15) (-2.645562e-16 5.189682e+01 -3.120563e-17))
0.00692538    	((1.291540e+02 1.566290e-14 1.675210e+03) (4.066764e+01 -2.609221e-17 -2.291238e+01)) ((-8.186351e-14 -6.205830e+02 6.248694e-15) (-2.515576e-16 5.162545e+01 -2.762271e-17))
0.00698591    	((1.327548e+02 1.589068e-14 1.627707e+03) (4.053055e+01 -2.657721e-17 -2.280127e+01)) ((-8.243324e-14 -5.934121e+02 6.384734e-15) (-2.426377e-16 5.141349e+01 -2.199248e-17))
0.00704673    	((1.328182e+02 1.616567e-14 1.635410e+03) (4.040205e+01 -2.642398e-17 -2.267244e+01)) ((-8.335280e-14 -6.040551e+02 6.487107e-15) (-2.292432e-16 5.120313e+01 -1.575624e-17))
0.00710783    	((1.287065e+02 1.553974e-14 1.658406e+03) (4.028224e+01 -2.603472e-17 -2.253492e+01)) ((-8.153447e-14 -6.030625e+02 6.266360e-15) (-2.124424e-16 5.100024e+01 -9.462929e-18))
0.00716922    	((1.281331e+02 1.541918e-14 1.648966e+03) (4.017502e+01 -2.826122e-17 -2.240215e+01)) ((-8.130335e-14 -5.996007e+02 6.200349e-15) (-1.915055e-16 5.081756e+01 -5.513841e-18))
0.0072309     	((1.268441e+02 1.542947e-14 1.658900e+03) (4.006623e+01 -3.081791e-17 -2.227547e+01)) ((-8.141400e-14 -6.080736e+02 6.189866e-15) (-1.704942e-16 5.064149e+01 -5.341131e-18))
0.00729319    	((1.245104e+02 1.547293e-14 1.679879e+03) (3.994238e+01 -3.376819e-17 -2.215499e+01)) ((-8.165584e-14 -6.252706e+02 6.174100e-15) (-1.508732e-16 5.045772e+01 -1.081748e-17))
0.0073561     	((1.278370e+02 1.530649e-14 1.631871e+03) (3.980684e+01 -3.707790e-17 -2.205246e+01)) ((-8.121342e-14 -5.937393e+02 6.140544e-15) (-1.370964e-16 5.027510e+01 -2.322177e-17))
0.00742028    	((1.270186e+02 1.521627e-14 1.624152e+03) (3.965052e+01 -4.077653e-17 -2.196343e+01)) ((-8.094378e-14 -5.902391e+02 6.095876e-15) (-1.282349e-16 5.008118e+01 -4.288961e-17))
0.0074858     	((1.275090e+02 1.520405e-14 1.616489e+03) (3.947840e+01 -4.446492e-17 -2.190048e+01)) ((-8.102333e-14 -5.882200e+02 6.085106e-15) (-1.261442e-16 4.988460e+01 -6.942646e-17))
0.00755381    	((1.254924e+02 1.495675e-14 1.617833e+03) (3.929569e+01 -4.705867e-17 -2.187465e+01)) ((-8.018485e-14 -5.871249e+02 5.975914e-15) (-1.326679e-16 4.969452e+01 -1.021615e-16))
0.00762453    	((1.247214e+02 1.512793e-14 1.643023e+03) (3.910489e+01 -4.871017e-17 -2.186816e+01)) ((-8.091914e-14 -6.084112e+02 6.023431e-15) (-1.474682e-16 4.950554e+01 -1.378183e-16))
0.00769863    	((1.215969e+02 1.520661e-14 1.681328e+03) (3.890587e+01 -5.011269e-17 -2.187361e+01)) ((-8.128612e-14 -6.367909e+02 6.011529e-15) (-1.685942e-16 4.931479e+01 -1.727509e-16))
0.00777649    	((1.233340e+02 1.483434e-14 1.631074e+03) (3.870325e+01 -5.298348e-17 -2.189088e+01)) ((-8.012981e-14 -6.026694e+02 5.879568e-15) (-1.931983e-16 4.912738e+01 -2.040554e-16))
0.00785853    	((1.218365e+02 1.474619e-14 1.634994e+03) (3.850384e+01 -5.864864e-17 -2.192033e+01)) ((-7.995136e-14 -6.080355e+02 5.814697e-15) (-2.189019e-16 4.895079e+01 -2.299716e-16))
0.00794343    	((1.247919e+02 1.479580e-14 1.612878e+03) (3.832320e+01 -6.237441e-17 -2.196008e+01)) ((-8.014324e-14 -5.937114e+02 5.872967e-15) (-2.486119e-16 4.879948e+01 -2.470049e-16))
0.00803017    	((1.225482e+02 1.462522e-14 1.615730e+03) (3.815139e+01 -6.438136e-17 -2.200346e+01)) ((-7.954773e-14 -5.955065e+02 5.786132e-15) (-2.808922e-16 4.865893e+01 -2.530581e-16))
0.00811754    	((1.205683e+02 1.460800e-14 1.626804e+03) (3.810739e+01 -6.406208e-17 -2.199099e+01)) ((-7.952485e-14 -6.058007e+02 5.750632e-15) (-3.226370e-16 4.861971e+01 -2.324825e-16))
0.00820491    	((1.208123e+02 1.458994e-14 1.619487e+03) (3.803503e+01 -6.266327e-17 -2.199617e+01)) ((-7.950694e-14 -6.029685e+02 5.740678e-15) (-3.618174e-16 4.856046e+01 -2.068268e-16))
0.00829228    	((1.220871e+02 1.463983e-14 1.614075e+03) (3.794008e+01 -6.043959e-17 -2.200882e+01)) ((-7.969404e-14 -5.995096e+02 5.776276e-15) (-3.989004e-16 4.848164e+01 -1.764668e-16))
0.00837965    	((1.230852e+02 1.482190e-14 1.575114e+03) (3.785304e+01 -5.837763e-17 -2.198915e+01)) ((-7.987459e-14 -5.820468e+02 5.839504e-15) (-4.269420e-16 4.839226e+01 -1.480300e-16))
0.00846702    	((1.366159e+02 2.253629e-14 9.413788e+02) (3.784729e+01 -5.688553e-17 -2.192708e+01)) ((-9.424149e-14 -3.858071e+02 8.387732e-15) (-4.459714e-16 4.836598e+01 -1.235807e-16))
0.00852587    	((1.248106e+02 1.507525e-14 1.586174e+03) (3.780579e+01 -5.555968e-17 -2.185536e+01)) ((-8.071010e-14 -5.882337e+02 5.960561e-15) (-4.554213e-16 4.829197e+01 -1.064673e-16))
0.00858501    	((1.190745e+02 1.519553e-14 1.648969e+03) (3.775310e+01 -5.460087e-17 -2.179604e+01)) ((-8.127257e-14 -6.355272e+02 5.927256e-15) (-4.644152e-16 4.821570e+01 -9.026405e-17))
0.00864446    	((1.213337e+02 1.483032e-14 1.614669e+03) (3.768119e+01 -5.361098e-17 -2.173307e+01)) ((-8.018606e-14 -6.059014e+02 5.831915e-15) (-4.726241e-16 4.811952e+01 -7.474623e-17))
0.00870455    	((1.215227e+02 1.458632e-14 1.591320e+03) (3.759781e+01 -5.266377e-17 -2.166320e+01)) ((-7.934120e-14 -5.883428e+02 5.756950e-15) (-4.798207e-16 4.800943e+01 -6.027094e-17))
0.00876495    	((1.225718e+02 1.452197e-14 1.574705e+03) (3.753094e+01 -5.165322e-17 -2.159564e+01)) ((-7.923329e-14 -5.794288e+02 5.733927e-15) (-4.855692e-16 4.791889e+01 -4.824289e-17))
0.00882601    	((1.217571e+02 1.454984e-14 1.586465e+03) (3.750195e+01 -5.065049e-17 -2.155835e+01)) ((-7.939893e-14 -5.886382e+02 5.734107e-15) (-4.897358e-16 4.788502e+01 -3.934586e-17))
0.00888774    	((1.217737e+02 1.440649e-14 1.570310e+03) (3.750203e+01 -4.961114e-17 -2.159200e+01)) ((-7.892682e-14 -5.782851e+02 5.683042e-15) (-4.950076e-16 4.792122e+01 -3.624563e-17))
0.00895088    	((1.210321e+02 1.465452e-14 1.593740e+03) (3.749708e+01 -4.905137e-17 -2.166448e+01)) ((-7.976720e-14 -5.976710e+02 5.765489e-15) (-4.978028e-16 4.797125e+01 -3.328063e-17))
0.00901512    	((1.193035e+02 1.456059e-14 1.604606e+03) (3.748860e+01 -4.858123e-17 -2.176231e+01)) ((-7.949712e-14 -6.030136e+02 5.716223e-15) (-4.982255e-16 4.802737e+01 -2.932770e-17))
0.0090813     	((1.166155e+02 1.476988e-14 1.641947e+03) (3.748217e+01 -4.807811e-17 -2.187191e+01)) ((-8.022692e-14 -6.315276e+02 5.765250e-15) (-4.974507e-16 4.808881e+01 -2.519421e-17))
0.00914911    	((1.201330e+02 1.436405e-14 1.573049e+03) (3.748364e+01 -4.732938e-17 -2.202069e+01)) ((-7.891995e-14 -5.819121e+02 5.652659e-15) (-4.947251e-16 4.817845e+01 -1.544361e-17))
0.00921912    	((1.195876e+02 1.430989e-14 1.572370e+03) (3.762174e+01 -4.651267e-17 -2.265330e+01)) ((-7.880023e-14 -5.814269e+02 5.629303e-15) (-4.937889e-16 4.869022e+01 1.854736e-17))
0.00929147    	((1.193746e+02 1.446617e-14 1.581598e+03) (3.724366e+01 -3.632516e-17 -2.440415e+01)) ((-7.937928e-14 -5.904464e+02 5.693052e-15) (-6.076904e-16 4.932302e+01 1.673665e-16))
0.00936689    	((1.194351e+02 1.428376e-14 1.562390e+03) (3.688163e+01 -3.133674e-17 -2.633858e+01)) ((-7.873715e-14 -5.770785e+02 5.621502e-15) (-5.057641e-16 5.010011e+01 1.398609e-16))
0.00944507    	((1.186916e+02 1.430674e-14 1.572364e+03) (3.621222e+01 -2.995260e-17 -2.794477e+01)) ((-7.873091e-14 -5.850388e+02 5.606721e-15) (-3.106788e-16 5.037793e+01 4.090081e-17))
0.00952443    	((1.141004e+02 1.461824e-14 1.638363e+03) (3.636367e+01 -3.150370e-17 -2.880734e+01)) ((-7.973157e-14 -6.348659e+02 5.655204e-15) (-2.441982e-16 5.106484e+01 4.767189e-17))