# Forces      
# CofR        : (0.000000e+00 0.000000e+00 -1.000000e+00)
# Time        forces(pressure viscous)	moments(pressure viscous)
0             	((-7.105427e-15 -3.955919e-14 5.018208e-14) (9.181703e+00 4.005137e-18 1.688744e+00)) ((-5.701534e-14 -7.460699e-13 -2.905862e-14) (-2.493703e-17 8.348759e+00 1.125891e-16))
1.19976e-05   	((1.717910e+05 3.225106e-12 1.642924e+06) (9.244526e+00 3.965584e-18 1.507980e+00)) ((-4.858947e-11 -4.413337e+05 4.743667e-12) (-1.518407e-17 8.484211e+00 1.109329e-16))
2.63878e-05   	((2.317636e+04 5.024384e-13 2.941781e+05) (9.251583e+00 3.816066e-18 1.445864e+00)) ((-8.398553e-12 -1.035421e+05 5.839987e-13) (-1.291341e-17 8.512082e+00 1.105456e-16))
4.36511e-05   	((1.245858e+04 2.537760e-13 1.582822e+05) (9.262127e+00 3.729709e-18 1.417542e+00)) ((-4.534949e-12 -5.433399e+04 3.074224e-13) (-1.163595e-17 8.532602e+00 1.107801e-16))
6.43527e-05   	((8.617804e+03 1.732500e-13 1.070335e+05) (9.284636e+00 3.684708e-18 1.402068e+00)) ((-3.095281e-12 -3.599454e+04 2.131314e-13) (-1.087421e-17 8.561107e+00 1.112202e-16))
8.91792e-05   	((6.053734e+03 1.132096e-13 7.659098e+04) (9.312519e+00 3.699263e-18 1.405063e+00)) ((-2.224352e-12 -2.631008e+04 1.390829e-13) (-1.067811e-17 8.580137e+00 1.117213e-16))
0.000118941   	((4.798826e+03 8.148472e-14 5.494391e+04) (9.346494e+00 3.700424e-18 1.401807e+00)) ((-1.621228e-12 -1.799048e+04 1.081998e-13) (-1.040070e-17 8.613831e+00 1.123370e-16))
0.000154634   	((3.970443e+03 6.017871e-14 4.202439e+04) (9.386791e+00 3.689467e-18 1.399553e+00)) ((-1.262388e-12 -1.336907e+04 8.447750e-14) (-1.020413e-17 8.654174e+00 1.130403e-16))
0.000197405   	((1.645839e+03 2.178419e-14 5.168327e+04) (9.415561e+00 3.638560e-18 1.381368e+00)) ((-1.531524e-12 -2.667711e+04 -3.634299e-14) (-8.952950e-18 8.702006e+00 1.134660e-16))
0.000248707   	((2.392687e+03 2.909125e-14 2.596646e+04) (9.463072e+00 3.634368e-18 1.377928e+00)) ((-8.061180e-13 -8.852966e+03 3.949791e-14) (-8.633760e-18 8.752451e+00 1.145562e-16))
0.000310237   	((2.524480e+03 2.312301e-14 2.134006e+04) (9.525964e+00 3.612524e-18 1.374596e+00)) ((-6.930769e-13 -6.642291e+03 3.724887e-14) (-8.370418e-18 8.817579e+00 1.158203e-16))
0.000383982   	((1.891481e+03 1.431170e-14 1.712712e+04) (9.600261e+00 3.564647e-18 1.372768e+00)) ((-5.511154e-13 -5.378703e+03 2.727508e-14) (-8.148685e-18 8.893617e+00 1.173773e-16))
0.000472342   	((2.061825e+03 1.537891e-14 1.358764e+04) (9.694471e+00 3.478536e-18 1.374127e+00)) ((-5.185197e-13 -3.952226e+03 2.133173e-14) (-7.888338e-18 8.988829e+00 1.195781e-16))
0.000577897   	((1.509233e+03 6.610744e-15 1.150974e+04) (9.808622e+00 3.389059e-18 1.374050e+00)) ((-4.034992e-13 -3.428001e+03 1.640208e-14) (-7.577909e-18 9.103966e+00 1.219544e-16))
0.000704014   	((1.668366e+03 5.346673e-15 1.079557e+04) (9.959219e+00 3.293450e-18 1.373975e+00)) ((-3.915986e-13 -2.999421e+03 1.667104e-14) (-7.225771e-18 9.255161e+00 1.249039e-16))
0.000854764   	((1.808748e+03 4.815368e-15 8.937333e+03) (1.015499e+01 3.092809e-18 1.377520e+00)) ((-3.988084e-13 -2.348646e+03 1.164501e-14) (-6.038430e-18 9.450425e+00 1.296469e-16))
0.00103538    	((1.844485e+03 5.622082e-15 8.817910e+03) (1.041823e+01 2.973564e-18 1.376700e+00)) ((-3.798721e-13 -2.197606e+03 1.344856e-14) (-5.176219e-18 9.713175e+00 1.350788e-16))
0.00125089    	((4.094556e+03 2.706874e-14 1.099390e+04) (1.083801e+01 2.970205e-18 1.347666e+00)) ((-6.384611e-13 -1.722578e+03 2.897694e-14) (-3.165051e-18 1.013544e+01 1.445237e-16))
0.00150772    	((7.546354e+02 -4.091728e-15 5.477751e+03) (1.126698e+01 2.754724e-18 1.362527e+00)) ((-2.223846e-13 -1.734637e+03 1.462081e-15) (-2.649747e-18 1.056067e+01 1.550502e-16))
0.00181593    	((7.232401e+02 -1.400469e-15 4.231806e+03) (1.178800e+01 2.490766e-18 1.396329e+00)) ((-1.776718e-13 -1.328885e+03 2.248749e-15) (-5.916900e-18 1.107650e+01 1.623455e-16))
0.00217961    	((5.906585e+02 -1.161282e-14 3.750105e+03) (1.239173e+01 2.254777e-18 1.450131e+00)) ((-1.723533e-13 -1.223471e+03 -2.632283e-15) (-4.245393e-18 1.167363e+01 1.715705e-16))
0.00261425    	((4.388741e+02 -1.346169e-14 3.504687e+03) (1.306620e+01 1.840570e-18 1.508789e+00)) ((-1.388452e-13 -1.176670e+03 -3.401988e-15) (-5.005201e-18 1.234159e+01 1.808304e-16))
0.0031256     	((2.890914e+02 -1.019669e-14 4.827118e+03) (1.380187e+01 1.616107e-18 1.570096e+00)) ((-1.665990e-13 -2.063567e+03 -4.608263e-15) (-5.508554e-18 1.307055e+01 1.910554e-16))
0.00372826    	((1.579415e+02 -9.670588e-15 6.930277e+03) (1.455857e+01 1.553390e-18 1.642845e+00)) ((-2.305178e-13 -3.723330e+03 -9.863403e-15) (-2.566740e-18 1.381932e+01 2.048681e-16))
0.00443572    	((1.988653e+02 -1.339295e-14 2.718436e+03) (1.534738e+01 1.400958e-18 1.719030e+00)) ((-1.039619e-13 -9.596696e+02 -6.166234e-15) (-2.634063e-18 1.459974e+01 2.185241e-16))
0.00511243    	((2.128238e+02 -1.349316e-14 2.266556e+03) (1.603702e+01 1.385016e-18 1.767405e+00)) ((-9.295141e-14 -7.095777e+02 -5.560953e-15) (-2.725828e-18 1.528712e+01 2.303252e-16))
0.00578914    	((2.350333e+02 -1.410438e-14 1.804244e+03) (1.665357e+01 1.103387e-18 1.816963e+00)) ((-8.720829e-14 -5.584537e+02 -5.842480e-15) (-3.665197e-18 1.589961e+01 2.383792e-16))
0.00646585    	((2.079393e+02 -1.413811e-14 1.961385e+03) (1.720484e+01 9.608091e-19 1.836094e+00)) ((-8.823527e-14 -6.119220e+02 -6.113006e-15) (-3.575761e-18 1.645370e+01 2.464165e-16))
0.00714255    	((1.820149e+02 -1.446725e-14 2.078922e+03) (1.769266e+01 9.702934e-19 1.844424e+00)) ((-8.779209e-14 -6.696559e+02 -6.418860e-15) (-2.633239e-18 1.694563e+01 2.540530e-16))
0.00781926    	((1.641570e+02 -1.467548e-14 2.239921e+03) (1.811750e+01 1.104821e-18 1.847457e+00)) ((-9.242998e-14 -8.324177e+02 -6.980588e-15) (-1.543506e-18 1.737233e+01 2.609750e-16))
0.00846035    	((1.108805e+02 -1.344833e-14 3.167864e+03) (1.846004e+01 1.407958e-18 1.846866e+00)) ((-1.145030e-13 -1.492319e+03 -8.087090e-15) (-1.359172e-18 1.771490e+01 2.665813e-16))
0.00910144    	((1.387058e+02 -1.677086e-14 2.331678e+03) (1.873347e+01 1.358729e-18 1.855174e+00)) ((-8.750283e-14 -9.443596e+02 -8.594466e-15) (-8.251080e-19 1.797930e+01 2.706598e-16))
0.00974254    	((1.503916e+02 -1.632663e-14 2.072959e+03) (1.896840e+01 1.549699e-18 1.837585e+00)) ((-8.447936e-14 -7.861338e+02 -8.025082e-15) (-1.070881e-19 1.821324e+01 2.739298e-16))
0.0103836     	((1.568362e+02 -1.574887e-14 1.901991e+03) (1.917863e+01 1.468193e-18 1.798194e+00)) ((-8.092096e-14 -6.965326e+02 -7.687161e-15) (7.587900e-19 1.842809e+01 2.752035e-16))
0.0110247     	((1.500535e+02 -1.479263e-14 1.943921e+03) (1.933129e+01 1.174361e-18 1.755297e+00)) ((-8.038417e-14 -6.816783e+02 -7.350287e-15) (2.097878e-18 1.858521e+01 2.760162e-16))
0.0116658     	((1.496517e+02 -1.622783e-14 1.816482e+03) (1.943772e+01 1.124491e-18 1.721338e+00)) ((-7.740084e-14 -6.334925e+02 -7.855769e-15) (3.250943e-18 1.868914e+01 2.766250e-16))
0.0123069     	((1.455022e+02 -1.772744e-14 1.798371e+03) (1.955131e+01 1.153771e-18 1.671615e+00)) ((-7.671116e-14 -6.818287e+02 -8.686485e-15) (3.734833e-18 1.880654e+01 2.747621e-16))
0.012948      	((1.444999e+02 -1.505839e-14 1.847513e+03) (1.962400e+01 8.222364e-19 1.610502e+00)) ((-7.769084e-14 -6.507087e+02 -7.627962e-15) (4.433735e-18 1.888710e+01 2.718890e-16))
0.0135891     	((1.410988e+02 -1.515216e-14 1.846933e+03) (1.968919e+01 4.364532e-19 1.539599e+00)) ((-7.731748e-14 -6.595659e+02 -7.736568e-15) (5.330517e-18 1.896372e+01 2.681729e-16))
0.0141233     	((1.429554e+02 -1.582872e-14 1.743633e+03) (1.972736e+01 3.711203e-19 1.499095e+00)) ((-7.509966e-14 -6.192201e+02 -7.922359e-15) (5.696713e-18 1.900204e+01 2.660025e-16))
0.0146131     	((1.336008e+02 -1.778248e-14 1.758438e+03) (1.979918e+01 2.838341e-19 1.453958e+00)) ((-7.506296e-14 -6.860503e+02 -8.920076e-15) (5.619500e-18 1.908309e+01 2.618715e-16))
0.0151028     	((1.404255e+02 -1.618078e-14 1.742580e+03) (1.984288e+01 1.674191e-19 1.411385e+00)) ((-7.442219e-14 -6.245005e+02 -8.079647e-15) (5.656987e-18 1.913532e+01 2.587950e-16))
0.0155925     	((1.368202e+02 -1.562678e-14 1.787203e+03) (1.987455e+01 4.462141e-20 1.371804e+00)) ((-7.531698e-14 -6.473692e+02 -8.004382e-15) (5.869308e-18 1.917410e+01 2.565442e-16))
0.0160822     	((1.382117e+02 -1.566518e-14 1.745360e+03) (1.989128e+01 5.745812e-20 1.337842e+00)) ((-7.403396e-14 -6.193801e+02 -7.916264e-15) (6.169840e-18 1.919416e+01 2.557509e-16))
0.0165719     	((1.252617e+02 -1.589837e-14 1.890502e+03) (1.995018e+01 1.552018e-19 1.286272e+00)) ((-7.712859e-14 -7.361234e+02 -8.444702e-15) (6.485704e-18 1.927085e+01 2.540444e-16))
0.0170617     	((1.365779e+02 -1.530618e-14 1.537815e+03) (1.997404e+01 -4.466308e-20 1.262544e+00)) ((-6.676330e-14 -5.582166e+02 -7.923227e-15) (5.416135e-18 1.929994e+01 2.520298e-16))
0.0175514     	((1.338153e+02 -1.586229e-14 1.731660e+03) (1.998197e+01 -3.544289e-19 1.232057e+00)) ((-7.313455e-14 -6.307475e+02 -8.108553e-15) (5.719134e-18 1.931472e+01 2.527178e-16))
0.0180411     	((1.351019e+02 -1.584668e-14 1.703056e+03) (1.997583e+01 -2.935792e-19 1.207066e+00)) ((-7.238095e-14 -6.064382e+02 -8.026314e-15) (5.890979e-18 1.931063e+01 2.550616e-16))
0.0185308     	((1.221575e+02 -1.599039e-14 1.860830e+03) (2.001548e+01 -2.289138e-19 1.171351e+00)) ((-7.593374e-14 -7.292271e+02 -8.548004e-15) (5.545641e-18 1.936518e+01 2.558774e-16))
0.0190206     	((1.326807e+02 -1.593631e-14 1.709175e+03) (2.001864e+01 -2.112439e-19 1.142009e+00)) ((-7.226835e-14 -6.172055e+02 -8.116477e-15) (5.373950e-18 1.937811e+01 2.589377e-16))
0.0195103     	((1.301456e+02 -1.597879e-14 1.724350e+03) (2.001497e+01 -1.657675e-19 1.113282e+00)) ((-7.230952e-14 -6.311448e+02 -8.185272e-15) (5.064661e-18 1.938352e+01 2.625547e-16))
0.02          	((1.328393e+02 -1.595984e-14 1.659602e+03) (1.999879e+01 -7.062542e-20 1.086044e+00)) ((-7.124911e-14 -5.933996e+02 -8.047438e-15) (4.238661e-18 1.937286e+01 2.667241e-16))
0.0205        	((1.226111e+02 -1.508396e-14 1.625859e+03) (2.001321e+01 2.088271e-19 1.067397e+00)) ((-7.836313e-14 -6.279180e+02 -7.710824e-15) (5.060894e-18 1.939560e+01 2.694358e-16))
0.021         	((1.295537e+02 -1.597444e-14 1.692896e+03) (1.998941e+01 4.224901e-19 1.045996e+00)) ((-7.176446e-14 -6.170495e+02 -8.173403e-15) (4.997772e-18 1.937698e+01 2.755879e-16))
0.0215        	((1.319907e+02 -1.597362e-14 1.643366e+03) (1.994734e+01 3.627439e-19 1.030540e+00)) ((-7.076843e-14 -5.851564e+02 -8.073261e-15) (5.333627e-18 1.933438e+01 2.822970e-16))
0.022         	((1.185394e+02 -1.605899e-14 1.818099e+03) (1.997328e+01 2.907243e-19 1.001428e+00)) ((-7.451139e-14 -7.147758e+02 -8.601435e-15) (5.031079e-18 1.937433e+01 2.854618e-16))
0.0225        	((1.280625e+02 -1.598160e-14 1.685212e+03) (1.994154e+01 2.336925e-19 9.797691e-01)) ((-7.147921e-14 -6.169063e+02 -8.213554e-15) (4.921515e-18 1.934894e+01 2.910652e-16))
0.023         	((1.264669e+02 -1.595008e-14 1.694746e+03) (1.990686e+01 1.641724e-19 9.579515e-01)) ((-7.159081e-14 -6.248215e+02 -8.257648e-15) (4.823294e-18 1.932051e+01 2.965207e-16))
0.0235        	((1.282544e+02 -1.594890e-14 1.601027e+03) (1.985784e+01 2.381383e-19 9.373101e-01)) ((-7.161600e-14 -5.756971e+02 -8.071299e-15) (4.713813e-18 1.927511e+01 3.027415e-16))
0.024         	((1.218493e+02 -1.611727e-14 1.592166e+03) (1.983430e+01 5.655430e-19 9.258227e-01)) ((-7.502454e-14 -6.002075e+02 -8.156351e-15) (4.830029e-18 1.925408e+01 3.082843e-16))
0.0245        	((1.252717e+02 -1.594079e-14 1.682159e+03) (1.978788e+01 7.872274e-19 9.094059e-01)) ((-7.159038e-14 -6.212030e+02 -8.277016e-15) (4.712624e-18 1.921057e+01 3.139358e-16))
0.025         	((1.240702e+02 -1.594442e-14 1.691888e+03) (1.974767e+01 8.821722e-19 8.921353e-01)) ((-7.183902e-14 -6.291103e+02 -8.318036e-15) (4.693221e-18 1.917426e+01 3.187676e-16))
0.0255        	((1.239010e+02 -1.596933e-14 1.682758e+03) (1.969949e+01 7.770571e-19 8.766942e-01)) ((-7.194811e-14 -6.268239e+02 -8.308687e-15) (4.935715e-18 1.912895e+01 3.234363e-16))
0.026         	((1.235180e+02 -1.596011e-14 1.688078e+03) (1.965824e+01 8.693608e-19 8.598102e-01)) ((-7.180946e-14 -6.281964e+02 -8.345238e-15) (4.960513e-18 1.909165e+01 3.273595e-16))
0.0265        	((1.239176e+02 -1.596857e-14 1.670477e+03) (1.960995e+01 1.004169e-18 8.362537e-01)) ((-7.177836e-14 -6.172744e+02 -8.320702e-15) (5.348579e-18 1.904985e+01 3.313688e-16))
0.027         	((1.182168e+02 -1.583292e-14 1.530779e+03) (1.956947e+01 1.229608e-18 8.275803e-01)) ((-7.229698e-14 -5.719994e+02 -8.226827e-15) (5.106248e-18 1.900959e+01 3.356050e-16))
0.0275        	((1.223498e+02 -1.601679e-14 1.658610e+03) (1.951628e+01 1.182388e-18 8.139833e-01)) ((-7.208585e-14 -6.178665e+02 -8.354892e-15) (5.216952e-18 1.895841e+01 3.382909e-16))
0.028         	((1.221407e+02 -1.599275e-14 1.677717e+03) (1.946748e+01 1.112019e-18 7.995399e-01)) ((-7.201074e-14 -6.260738e+02 -8.381009e-15) (5.362489e-18 1.891218e+01 3.400980e-16))
0.0285        	((1.223690e+02 -1.592771e-14 1.671666e+03) (1.941269e+01 1.005347e-18 7.855574e-01)) ((-7.168668e-14 -6.204531e+02 -8.354225e-15) (5.643887e-18 1.885937e+01 3.417624e-16))
0.029         	((1.215228e+02 -1.589236e-14 1.675527e+03) (1.936379e+01 1.017532e-18 7.706213e-01)) ((-7.184354e-14 -6.247981e+02 -8.357033e-15) (5.861483e-18 1.881358e+01 3.431183e-16))
0.0295        	((1.208830e+02 -1.590419e-14 1.678625e+03) (1.931390e+01 1.194241e-18 7.557581e-01)) ((-7.200030e-14 -6.290224e+02 -8.372586e-15) (6.051639e-18 1.876717e+01 3.448130e-16))
0.03          	((1.207723e+02 -1.588175e-14 1.669715e+03) (1.927221e+01 1.224473e-18 7.291866e-01)) ((-7.186533e-14 -6.240902e+02 -8.373719e-15) (7.303476e-18 1.873526e+01 3.471511e-16))
0.0305        	((1.139443e+02 -1.628750e-14 1.523467e+03) (1.922643e+01 1.512052e-18 7.247453e-01)) ((-6.756170e-14 -5.728852e+02 -8.794845e-15) (6.589658e-18 1.868859e+01 3.493099e-16))
0.031         	((1.199713e+02 -1.582842e-14 1.678412e+03) (1.917714e+01 1.609879e-18 7.095072e-01)) ((-7.202762e-14 -6.288760e+02 -8.407679e-15) (6.957474e-18 1.864370e+01 3.513242e-16))
0.0315        	((1.192066e+02 -1.582180e-14 1.677220e+03) (1.912855e+01 1.598818e-18 6.949601e-01)) ((-7.221265e-14 -6.309912e+02 -8.423604e-15) (7.457182e-18 1.859951e+01 3.534494e-16))
0.032         	((1.190196e+02 -1.581368e-14 1.687048e+03) (1.908231e+01 1.476111e-18 6.807644e-01)) ((-7.232786e-14 -6.360292e+02 -8.430722e-15) (8.045273e-18 1.855786e+01 3.554198e-16))
0.0325        	((1.191631e+02 -1.581686e-14 1.680206e+03) (1.903547e+01 1.321767e-18 6.666599e-01)) ((-7.208957e-14 -6.317958e+02 -8.423120e-15) (8.700323e-18 1.851563e+01 3.575526e-16))
0.033         	((1.191796e+02 -1.580758e-14 1.671391e+03) (1.898866e+01 1.291051e-18 6.511271e-01)) ((-7.166384e-14 -6.258657e+02 -8.415098e-15) (9.263183e-18 1.847419e+01 3.598057e-16))
0.0335        	((1.173287e+02 -1.582048e-14 1.665417e+03) (1.894551e+01 1.041862e-18 6.263976e-01)) ((-7.170921e-14 -6.279545e+02 -8.444479e-15) (1.014153e-17 1.844130e+01 3.622344e-16))
0.034         	((1.112195e+02 -1.594973e-14 1.535042e+03) (1.890053e+01 9.251492e-19 6.242347e-01)) ((-7.051640e-14 -5.768156e+02 -8.535948e-15) (1.096658e-17 1.839544e+01 3.646954e-16))
0.0345        	((1.177549e+02 -1.581129e-14 1.682084e+03) (1.885117e+01 9.675092e-19 6.103131e-01)) ((-7.180470e-14 -6.351853e+02 -8.447254e-15) (1.141821e-17 1.835189e+01 3.672118e-16))
0.035         	((1.168652e+02 -1.580668e-14 1.681574e+03) (1.880367e+01 1.057164e-18 5.978019e-01)) ((-7.192141e-14 -6.372799e+02 -8.465761e-15) (1.203408e-17 1.830925e+01 3.699348e-16))
0.0355        	((1.164953e+02 -1.577413e-14 1.697952e+03) (1.875678e+01 1.128732e-18 5.854930e-01)) ((-7.225231e-14 -6.455776e+02 -8.473655e-15) (1.274084e-17 1.826704e+01 3.728296e-16))
0.036         	((1.168729e+02 -1.576870e-14 1.691587e+03) (1.870884e+01 1.226675e-18 5.734098e-01)) ((-7.205170e-14 -6.404355e+02 -8.467759e-15) (1.340164e-17 1.822377e+01 3.757736e-16))
0.0365        	((1.153039e+02 -1.578717e-14 1.688748e+03) (1.866668e+01 1.613917e-18 5.515207e-01)) ((-7.223795e-14 -6.438233e+02 -8.503642e-15) (1.422851e-17 1.819177e+01 3.788753e-16))
0.037         	((1.066634e+02 -1.811822e-14 1.521187e+03) (1.862392e+01 1.462017e-18 5.506367e-01)) ((-6.506396e-14 -5.742123e+02 -1.000515e-14) (1.437888e-17 1.814818e+01 3.797900e-16))
0.0375        	((1.144358e+02 -1.591589e-14 1.694093e+03) (1.857672e+01 1.453913e-18 5.397241e-01)) ((-7.213015e-14 -6.484959e+02 -8.605946e-15) (1.505924e-17 1.810524e+01 3.819826e-16))
0.038         	((1.150509e+02 -1.582082e-14 1.704536e+03) (1.853171e+01 1.435241e-18 5.285285e-01)) ((-7.239278e-14 -6.511639e+02 -8.553496e-15) (1.568777e-17 1.806477e+01 3.839668e-16))
0.0385        	((1.148008e+02 -1.583106e-14 1.707064e+03) (1.848648e+01 1.332132e-18 5.174747e-01)) ((-7.244802e-14 -6.524256e+02 -8.570429e-15) (1.629708e-17 1.802410e+01 3.853673e-16))
0.039         	((1.140881e+02 -1.588402e-14 1.705254e+03) (1.844057e+01 1.253448e-18 5.071271e-01)) ((-7.245448e-14 -6.534451e+02 -8.611012e-15) (1.677159e-17 1.798252e+01 3.862136e-16))
0.0395        	((1.132314e+02 -1.594220e-14 1.705765e+03) (1.839375e+01 1.931837e-18 4.962822e-01)) ((-7.247437e-14 -6.561915e+02 -8.659974e-15) (1.626817e-17 1.794033e+01 3.869009e-16))
0.04          	((1.127063e+02 -1.658119e-14 1.676285e+03) (1.835322e+01 1.104836e-18 4.734131e-01)) ((-7.213825e-14 -6.405681e+02 -8.940802e-15) (1.627707e-17 1.791134e+01 3.860008e-16))
0.0405128     	((1.051472e+02 -2.062117e-14 1.552068e+03) (1.830656e+01 6.825905e-19 4.748140e-01)) ((-7.242859e-14 -5.870653e+02 -1.078426e-14) (1.859308e-17 1.786260e+01 3.875700e-16))
0.0410256     	((1.140943e+02 -1.581892e-14 1.708926e+03) (1.825714e+01 5.648918e-19 4.645041e-01)) ((-7.224050e-14 -6.541178e+02 -8.601714e-15) (1.891791e-17 1.781730e+01 3.875836e-16))
0.0415385     	((1.135672e+02 -1.599806e-14 1.709624e+03) (1.820638e+01 4.136197e-19 4.554249e-01)) ((-7.231715e-14 -6.550320e+02 -8.693735e-15) (1.937070e-17 1.776991e+01 3.872309e-16))
0.0420513     	((1.130009e+02 -1.610196e-14 1.707424e+03) (1.815393e+01 2.590237e-19 4.473906e-01)) ((-7.229104e-14 -6.553738e+02 -8.752793e-15) (1.980935e-17 1.772026e+01 3.867632e-16))
0.0425641     	((1.128169e+02 -1.603555e-14 1.711564e+03) (1.809982e+01 2.075866e-19 4.395862e-01)) ((-7.234327e-14 -6.581877e+02 -8.734385e-15) (2.010064e-17 1.766873e+01 3.864013e-16))
0.0430769     	((1.110534e+02 -1.657126e-14 1.692259e+03) (1.805379e+01 1.594610e-18 4.148186e-01)) ((-7.188080e-14 -6.512028e+02 -9.045902e-15) (2.142745e-17 1.763544e+01 3.886765e-16))
0.0435897     	((1.006046e+02 -2.061133e-14 1.548170e+03) (1.800292e+01 5.990045e-19 4.194787e-01)) ((-5.983068e-14 -5.880047e+02 -1.193735e-14) (2.073133e-17 1.758043e+01 3.905610e-16))
0.0441026     	((1.121965e+02 -1.587109e-14 1.729552e+03) (1.794913e+01 3.874061e-19 4.111022e-01)) ((-7.294237e-14 -6.684427e+02 -8.705335e-15) (2.099592e-17 1.752979e+01 3.903784e-16))
0.0446154     	((1.117187e+02 -1.590046e-14 1.729444e+03) (1.789643e+01 2.676541e-19 4.024127e-01)) ((-7.306169e-14 -6.690924e+02 -8.742050e-15) (2.123167e-17 1.748052e+01 3.906943e-16))
0.0451282     	((1.106180e+02 -1.624412e-14 1.719322e+03) (1.784453e+01 1.783977e-19 3.946585e-01)) ((-7.216698e-14 -6.655437e+02 -8.990347e-15) (2.131220e-17 1.743183e+01 3.914837e-16))
0.045641      	((1.105106e+02 -1.617044e-14 1.724348e+03) (1.779389e+01 4.943742e-20 3.870751e-01)) ((-7.257753e-14 -6.689535e+02 -8.936053e-15) (2.141501e-17 1.738433e+01 3.923269e-16))
0.0461538     	((1.090345e+02 -1.659767e-14 1.709794e+03) (1.775555e+01 -3.560797e-19 3.633477e-01)) ((-7.168482e-14 -6.636998e+02 -9.227433e-15) (2.322837e-17 1.735903e+01 3.942268e-16))
0.0466667     	((9.667036e+01 -2.022899e-14 1.551074e+03) (1.771827e+01 -2.177470e-19 3.695177e-01)) ((-5.967658e-14 -5.913439e+02 -1.198708e-14) (2.190553e-17 1.731707e+01 3.970043e-16))
0.0471795     	((1.098564e+02 -1.607804e-14 1.744325e+03) (1.767661e+01 -1.796013e-19 3.576094e-01)) ((-7.305486e-14 -6.809200e+02 -8.920751e-15) (2.105470e-17 1.728297e+01 3.984989e-16))
0.0476923     	((1.094425e+02 -1.609785e-14 1.749567e+03) (1.763606e+01 -3.637512e-19 3.423992e-01)) ((-7.290849e-14 -6.839925e+02 -8.968472e-15) (1.999092e-17 1.725328e+01 4.008965e-16))
0.0482051     	((1.081594e+02 -1.636591e-14 1.741865e+03) (1.759817e+01 -5.089907e-19 3.268273e-01)) ((-7.219932e-14 -6.819142e+02 -9.180092e-15) (1.890202e-17 1.722691e+01 4.032828e-16))
0.0487179     	((1.083577e+02 -1.616400e-14 1.754170e+03) (1.756166e+01 -5.696229e-19 3.135921e-01)) ((-7.286001e-14 -6.890951e+02 -9.050628e-15) (1.807703e-17 1.720003e+01 4.047986e-16))
0.0492308     	((1.062449e+02 -1.670919e-14 1.733618e+03) (1.752927e+01 -8.092412e-19 2.909059e-01)) ((-7.140819e-14 -6.812992e+02 -9.452308e-15) (1.930259e-17 1.718260e+01 4.055520e-16))
0.0497436     	((9.210587e+01 -2.085349e-14 1.562550e+03) (1.748885e+01 -5.062236e-19 2.932673e-01)) ((-5.353548e-14 -6.002867e+02 -1.305357e-14) (1.711052e-17 1.714082e+01 4.018146e-16))
0.0502564     	((1.069972e+02 -1.631401e-14 1.764710e+03) (1.742979e+01 -7.948164e-19 2.856817e-01)) ((-7.273822e-14 -6.975162e+02 -9.190436e-15) (1.723772e-17 1.708586e+01 3.963723e-16))
0.0507692     	((1.063603e+02 -1.645926e-14 1.766687e+03) (1.736089e+01 -1.025108e-18 2.775130e-01)) ((-7.207926e-14 -6.988495e+02 -9.335518e-15) (1.741177e-17 1.702142e+01 3.888153e-16))
0.0512821     	((1.061541e+02 -1.644030e-14 1.773906e+03) (1.729007e+01 -1.305937e-18 2.694010e-01)) ((-7.220217e-14 -7.030448e+02 -9.335619e-15) (1.760476e-17 1.695503e+01 3.797912e-16))
0.0517949     	((1.056732e+02 -1.646210e-14 1.777335e+03) (1.722494e+01 -1.700823e-18 2.606162e-01)) ((-7.224660e-14 -7.059169e+02 -9.365621e-15) (1.778034e-17 1.689500e+01 3.701658e-16))
0.0523077     	((1.042543e+02 -1.674675e-14 1.768977e+03) (1.716818e+01 -2.148450e-18 2.472352e-01)) ((-7.134897e-14 -7.036000e+02 -9.607480e-15) (1.773350e-17 1.684682e+01 3.604503e-16))
0.0528205     	((8.705364e+01 -2.297266e-14 1.571317e+03) (1.712270e+01 -2.221619e-18 2.395229e-01)) ((-6.059533e-14 -6.070469e+02 -1.376519e-14) (1.713900e-17 1.680688e+01 3.482702e-16))
0.0533333     	((1.027810e+02 -1.704030e-14 1.774275e+03) (1.707884e+01 -2.367826e-18 2.307319e-01)) ((-7.167193e-14 -7.085373e+02 -9.794716e-15) (1.683696e-17 1.676934e+01 3.389398e-16))
0.0538462     	((1.030317e+02 -1.685577e-14 1.788976e+03) (1.703343e+01 -2.577274e-18 2.167789e-01)) ((-7.211341e-14 -7.170138e+02 -9.678474e-15) (1.670331e-17 1.673460e+01 3.311438e-16))
0.054359      	((1.033624e+02 -1.670804e-14 1.805563e+03) (1.697248e+01 -2.562744e-18 2.040747e-01)) ((-7.284857e-14 -7.259920e+02 -9.562641e-15) (1.657533e-17 1.668288e+01 3.285528e-16))
0.0548718     	((1.024019e+02 -1.701015e-14 1.807297e+03) (1.689048e+01 -2.127189e-18 1.915428e-01)) ((-7.262450e-14 -7.279658e+02 -9.757412e-15) (1.583625e-17 1.660906e+01 3.325030e-16))
0.0553846     	((1.014814e+02 -1.720635e-14 1.811781e+03) (1.681000e+01 -1.599817e-18 1.790980e-01)) ((-7.264879e-14 -7.318223e+02 -9.888682e-15) (1.487207e-17 1.653707e+01 3.397765e-16))
0.0558974     	((8.010381e+01 -2.134664e-14 1.583930e+03) (1.674268e+01 -1.184972e-18 1.728351e-01)) ((-6.993864e-14 -6.171204e+02 -1.217231e-14) (1.435129e-17 1.647494e+01 3.485778e-16))
0.0564103     	((1.007095e+02 -1.700751e-14 1.835338e+03) (1.667611e+01 -6.789841e-19 1.609112e-01)) ((-7.380789e-14 -7.478450e+02 -9.785520e-15) (1.328262e-17 1.641766e+01 3.578594e-16))
0.0569231     	((9.988250e+01 -1.714287e-14 1.837363e+03) (1.661419e+01 -1.723801e-19 1.495050e-01)) ((-7.367964e-14 -7.504929e+02 -9.892232e-15) (1.248297e-17 1.636444e+01 3.671645e-16))
0.0574359     	((9.936187e+01 -1.720420e-14 1.841488e+03) (1.655440e+01 6.615086e-19 1.346119e-01)) ((-7.369537e-14 -7.534811e+02 -9.934760e-15) (1.157874e-17 1.631542e+01 3.766156e-16))
0.0579487     	((9.751355e+01 -1.754238e-14 1.832494e+03) (1.648678e+01 9.643483e-19 1.251988e-01)) ((-7.339989e-14 -7.496952e+02 -1.013139e-14) (1.141993e-17 1.625451e+01 3.853596e-16))
0.0584615     	((9.748355e+01 -1.759246e-14 1.846128e+03) (1.640796e+01 1.123197e-18 1.160704e-01)) ((-7.296725e-14 -7.576828e+02 -1.019724e-14) (1.135043e-17 1.618166e+01 3.931888e-16))
0.0589744     	((7.444934e+01 -1.673878e-14 1.610721e+03) (1.633062e+01 1.161144e-18 1.124670e-01)) ((-7.031796e-14 -6.334693e+02 -9.548907e-15) (1.140577e-17 1.610641e+01 4.010345e-16))
0.0594872     	((9.739914e+01 -1.754024e-14 1.871226e+03) (1.625556e+01 8.745882e-19 1.055813e-01)) ((-7.306619e-14 -7.727271e+02 -1.018917e-14) (1.165902e-17 1.603572e+01 4.051612e-16))
0.06          	((9.695533e+01 -1.755885e-14 1.878039e+03) (1.619478e+01 1.007221e-18 9.627225e-02)) ((-7.315234e-14 -7.776240e+02 -1.021198e-14) (1.160137e-17 1.598159e+01 4.085015e-16))
0.0605128     	((9.596229e+01 -1.767235e-14 1.880008e+03) (1.614706e+01 1.195642e-18 8.020640e-02)) ((-7.314961e-14 -7.804272e+02 -1.029803e-14) (1.156639e-17 1.594605e+01 4.112495e-16))
0.0610256     	((9.330575e+01 -1.753654e-14 1.862237e+03) (1.610343e+01 1.032463e-18 7.124039e-02)) ((-7.307604e-14 -7.721934e+02 -1.021476e-14) (1.186035e-17 1.590918e+01 4.132440e-16))
0.0615385     	((9.239184e+01 -1.752658e-14 1.871190e+03) (1.605887e+01 1.239571e-18 6.338749e-02)) ((-7.297697e-14 -7.785701e+02 -1.025592e-14) (1.147606e-17 1.587068e+01 4.148376e-16))
0.0620513     	((6.726182e+01 -1.454330e-14 1.632312e+03) (1.602349e+01 1.025329e-18 5.035936e-02)) ((-6.722394e-14 -6.494174e+02 -8.706295e-15) (1.162333e-17 1.584561e+01 4.143506e-16))
0.0625641     	((9.262394e+01 -1.761429e-14 1.912215e+03) (1.597939e+01 1.175056e-18 3.727392e-02)) ((-7.373128e-14 -8.035536e+02 -1.035521e-14) (1.142461e-17 1.581171e+01 4.156984e-16))
0.0630769     	((9.276472e+01 -1.748263e-14 1.928324e+03) (1.592916e+01 1.134107e-18 2.000814e-02)) ((-7.400412e-14 -8.128129e+02 -1.030106e-14) (1.121259e-17 1.577493e+01 4.169788e-16))
0.0635897     	((9.191308e+01 -1.748944e-14 1.934288e+03) (1.587057e+01 9.853317e-19 1.493053e-03)) ((-7.397482e-14 -8.173098e+02 -1.033474e-14) (1.129092e-17 1.573060e+01 4.181085e-16))
0.0641026     	((9.060608e+01 -1.746425e-14 1.937732e+03) (1.580405e+01 8.276445e-19 -1.542916e-02)) ((-7.394312e-14 -8.211282e+02 -1.035374e-14) (1.140011e-17 1.567743e+01 4.192157e-16))
0.0646154     	((8.375740e+01 -1.712570e-14 1.884881e+03) (1.573064e+01 9.552317e-19 -2.288338e-02)) ((-7.351053e-14 -7.932971e+02 -1.015225e-14) (1.167889e-17 1.561063e+01 4.206753e-16))
0.0651282     	((5.977980e+01 -1.782337e-14 1.669049e+03) (1.566985e+01 8.627437e-19 -4.260373e-02)) ((-7.515782e-14 -6.727301e+02 -1.018974e-14) (1.153431e-17 1.556574e+01 4.197197e-16))
0.065641      	((8.568878e+01 -1.789211e-14 1.945701e+03) (1.563451e+01 1.293615e-18 -2.837773e-02)) ((-7.540989e-14 -8.280563e+02 -1.062343e-14) (1.609696e-17 1.551417e+01 4.197375e-16))
0.0661538     	((8.422101e+01 -1.777270e-14 1.956093e+03) (1.561849e+01 1.457648e-18 -4.717245e-03)) ((-7.538474e-14 -8.343329e+02 -1.061154e-14) (1.839817e-17 1.547238e+01 4.202101e-16))
0.0666667     	((8.367842e+01 -1.759522e-14 1.966477e+03) (1.562453e+01 1.865997e-18 3.103479e-02)) ((-7.551049e-14 -8.399020e+02 -1.052915e-14) (1.975968e-17 1.544048e+01 4.214014e-16))
0.0671795     	((8.114723e+01 -1.753591e-14 1.972698e+03) (1.561526e+01 1.292951e-18 5.552223e-02)) ((-7.704320e-14 -8.441061e+02 -1.038140e-14) (2.260528e-17 1.540599e+01 4.227681e-16))
0.0676923     	((4.096060e+01 -1.846213e-14 1.602969e+03) (1.560803e+01 1.021135e-18 5.850906e-02)) ((-8.925156e-14 -6.300887e+02 -9.311065e-15) (2.416440e-17 1.539381e+01 4.269415e-16))
0.0682051     	((7.992832e+01 -1.767889e-14 1.990479e+03) (1.558982e+01 1.002526e-18 5.668227e-02)) ((-7.690737e-14 -8.582357e+02 -1.055582e-14) (2.500535e-17 1.537516e+01 4.284672e-16))
0.0687179     	((7.639765e+01 -1.751062e-14 2.018580e+03) (1.556273e+01 7.816320e-19 4.998204e-02)) ((-7.816457e-14 -8.761485e+02 -1.044381e-14) (2.567383e-17 1.535239e+01 4.301392e-16))
0.0692308     	((7.851365e+01 -1.753178e-14 1.998348e+03) (1.554039e+01 5.814136e-19 3.603966e-02)) ((-7.668687e-14 -8.641574e+02 -1.051122e-14) (2.612264e-17 1.534046e+01 4.311851e-16))
0.0697436     	((6.607838e+01 -1.760831e-14 1.969996e+03) (1.550336e+01 8.015082e-19 3.687157e-02)) ((-7.961205e-14 -8.491721e+02 -1.038081e-14) (2.570428e-17 1.530230e+01 4.331306e-16))
0.0702564     	((4.474758e+01 -1.732067e-14 1.739689e+03) (1.547747e+01 1.206420e-18 3.446189e-02)) ((-7.119704e-14 -7.099761e+02 -1.082536e-14) (2.733416e-17 1.527668e+01 4.351973e-16))
0.0707692     	((5.132344e+01 -1.739297e-14 1.856402e+03) (1.545027e+01 1.708363e-18 3.004026e-02)) ((-7.554294e-14 -7.805113e+02 -1.061937e-14) (2.830818e-17 1.525151e+01 4.366768e-16))
0.0712821     	((6.619200e+01 -1.741585e-14 2.015874e+03) (1.541881e+01 1.941810e-18 2.609407e-02)) ((-8.070413e-14 -8.761886e+02 -1.028437e-14) (2.865969e-17 1.522167e+01 4.372278e-16))
0.0717949     	((7.102377e+01 -1.727649e-14 1.998026e+03) (1.539410e+01 2.177379e-18 2.186828e-02)) ((-7.964364e-14 -8.621702e+02 -1.020366e-14) (2.877135e-17 1.519863e+01 4.376525e-16))
0.0723077     	((3.311641e+01 -1.781784e-14 2.314861e+03) (1.534029e+01 2.409305e-18 2.397368e-02)) ((-9.094075e-14 -1.089041e+03 -1.111308e-14) (2.914969e-17 1.514156e+01 4.402411e-16))
0.0728205     	((-1.084180e+01 -2.294849e-14 1.985516e+03) (1.529109e+01 2.438524e-18 1.701528e-02)) ((-8.267221e-14 -8.839389e+02 -1.550498e-14) (2.961740e-17 1.509689e+01 4.430051e-16))
0.0733333     	((3.200201e+01 -1.974236e-14 1.991625e+03) (1.526590e+01 2.329880e-18 7.135497e-03)) ((-8.266245e-14 -8.666310e+02 -1.237937e-14) (3.012413e-17 1.507879e+01 4.455615e-16))
0.0738462     	((4.915135e+01 -1.775736e-14 2.105717e+03) (1.524911e+01 2.322024e-18 -4.434121e-03)) ((-8.576202e-14 -9.358750e+02 -1.063909e-14) (3.050922e-17 1.507061e+01 4.487099e-16))
0.074359      	((4.477340e+01 -1.799631e-14 2.118474e+03) (1.524427e+01 2.209514e-18 -1.404381e-02)) ((-8.634014e-14 -9.461483e+02 -1.085822e-14) (3.118212e-17 1.507269e+01 4.520270e-16))