# Forces      
# CofR        : (0.000000e+00 0.000000e+00 -1.000000e+00)
# Time        forces(pressure viscous)	moments(pressure viscous)
0             	((5.684342e-14 6.445847e-15 -1.136868e-13) (1.476379e+01 5.115264e-18 2.712233e+00)) ((-1.025239e-13 3.410605e-13 -3.521632e-15) (-5.985527e-18 1.347230e+01 1.132463e-17))
1.19976e-05   	((1.759545e+05 1.484109e-11 1.716457e+06) (1.497185e+01 4.109588e-18 2.347189e+00)) ((-4.066230e-11 -4.695219e+05 8.177598e-12) (3.036130e-18 1.380376e+01 8.507562e-18))
2.63878e-05   	((2.059598e+04 2.483587e-12 2.843139e+05) (1.497384e+01 4.259637e-18 2.220624e+00)) ((-6.583528e-12 -9.587516e+04 1.371496e-12) (4.838404e-18 1.384533e+01 8.315716e-18))
4.36511e-05   	((1.106016e+04 1.455334e-12 1.800874e+05) (1.499315e+01 3.573318e-18 2.127793e+00)) ((-4.012720e-12 -6.712667e+04 7.577978e-13) (5.764153e-18 1.390654e+01 7.565400e-18))
6.43527e-05   	((8.281375e+03 9.915094e-13 1.132147e+05) (1.501203e+01 3.750073e-18 2.059167e+00)) ((-2.717146e-12 -3.886047e+04 5.287364e-13) (6.323296e-18 1.396120e+01 7.624863e-18))
8.91792e-05   	((5.969510e+03 7.150540e-13 8.157199e+04) (1.503359e+01 3.471065e-18 1.979238e+00)) ((-1.958236e-12 -2.796223e+04 3.816891e-13) (6.707424e-18 1.402428e+01 7.350473e-18))
0.000118941   	((4.521278e+03 5.169523e-13 5.862990e+04) (1.506274e+01 3.189136e-18 1.893082e+00)) ((-1.429835e-12 -1.983223e+04 2.752543e-13) (6.592592e-18 1.410176e+01 7.214417e-18))
0.000154634   	((3.656836e+03 3.871958e-13 4.328921e+04) (1.509495e+01 2.904977e-18 1.796212e+00)) ((-1.087696e-12 -1.428387e+04 2.058787e-13) (6.055190e-18 1.419115e+01 7.783460e-18))
0.000197405   	((2.734402e+03 2.978080e-13 3.393367e+04) (1.512833e+01 2.563534e-18 1.682441e+00)) ((-8.476916e-13 -1.137751e+04 1.563918e-13) (5.533604e-18 1.429113e+01 8.043919e-18))
0.000248707   	((2.455661e+03 2.370994e-13 2.671635e+04) (1.518605e+01 2.083880e-18 1.569741e+00)) ((-6.842189e-13 -8.818944e+03 1.251457e-13) (4.135419e-18 1.442163e+01 8.294263e-18))
0.000310237   	((1.871201e+03 1.870124e-13 2.113179e+04) (1.527430e+01 2.081839e-18 1.452050e+00)) ((-5.500811e-13 -6.866817e+03 9.758692e-14) (1.891952e-18 1.458408e+01 9.149260e-18))
0.000383982   	((1.642167e+03 1.551550e-13 1.730479e+04) (1.542471e+01 3.216006e-18 1.415596e+00)) ((-4.776526e-13 -5.733752e+03 7.840001e-14) (-1.399421e-18 1.474648e+01 1.141116e-17))
0.000472342   	((8.432000e+02 1.452060e-13 2.187075e+04) (1.555606e+01 3.054653e-18 1.305031e+00)) ((-5.015429e-13 -1.056995e+04 5.769634e-14) (-1.200424e-18 1.497917e+01 1.497679e-17))
0.000577897   	((1.343124e+03 1.068893e-13 1.088131e+04) (1.578967e+01 2.931011e-18 1.284674e+00)) ((-3.330345e-13 -2.935556e+03 5.673309e-14) (-2.354270e-18 1.526807e+01 1.587774e-17))
0.000700048   	((1.132713e+03 9.139944e-14 9.457311e+03) (1.604268e+01 2.546182e-18 1.287114e+00)) ((-2.891318e-13 -2.550391e+03 4.857877e-14) (-2.957034e-18 1.557111e+01 1.617910e-17))
0.000802708   	((1.336585e+03 9.713269e-14 1.007951e+04) (1.625445e+01 2.322183e-18 1.306151e+00)) ((-3.110821e-13 -2.727157e+03 5.147795e-14) (-3.433512e-18 1.581857e+01 1.511618e-17))
0.00090877    	((1.172490e+03 8.833726e-14 8.975271e+03) (1.646529e+01 2.078958e-18 1.323141e+00)) ((-2.862702e-13 -2.470592e+03 4.642476e-14) (-3.304669e-18 1.606126e+01 9.869177e-18))
0.00101912    	((1.033771e+03 8.081029e-14 8.824246e+03) (1.667747e+01 1.810791e-18 1.341359e+00)) ((-2.691964e-13 -2.665415e+03 4.068470e-14) (-2.445581e-18 1.630271e+01 2.214341e-18))
0.00113416    	((9.799536e+02 7.658540e-14 8.051253e+03) (1.688660e+01 1.560924e-18 1.352708e+00)) ((-2.586973e-13 -2.369407e+03 3.920668e-14) (-1.700138e-18 1.654095e+01 -6.036364e-18))
0.00125281    	((9.277606e+02 6.896149e-14 7.205657e+03) (1.708011e+01 1.522949e-18 1.372892e+00)) ((-2.463136e-13 -2.084479e+03 3.490869e-14) (6.549691e-19 1.675777e+01 -1.072755e-17))
0.00137615    	((8.759393e+02 6.620253e-14 6.904053e+03) (1.728794e+01 1.709044e-18 1.386444e+00)) ((-2.284208e-13 -2.003868e+03 3.368356e-14) (1.138815e-18 1.698227e+01 -1.389119e-17))
0.00150548    	((8.273702e+02 6.054534e-14 6.649248e+03) (1.747326e+01 1.661594e-18 1.404891e+00)) ((-2.279440e-13 -2.138764e+03 3.082584e-14) (1.925634e-18 1.718438e+01 -1.511994e-17))
0.0016395     	((6.644595e+02 6.433164e-14 8.144940e+03) (1.766220e+01 1.135124e-18 1.391454e+00)) ((-2.368499e-13 -3.404505e+03 2.849030e-14) (2.560977e-18 1.740963e+01 -1.719111e-17))
0.00177966    	((7.387479e+02 5.746729e-14 6.918954e+03) (1.782308e+01 1.185191e-18 1.395610e+00)) ((-2.268390e-13 -2.670623e+03 2.715056e-14) (2.328641e-18 1.759178e+01 -1.580864e-17))
0.00190531    	((9.638108e+02 6.049695e-14 6.261283e+03) (1.798212e+01 1.077512e-18 1.386164e+00)) ((-2.229995e-13 -1.856151e+03 3.063962e-14) (2.477949e-18 1.777209e+01 -1.498731e-17))
0.00202358    	((1.205265e+03 6.782598e-14 6.960046e+03) (1.814305e+01 1.050322e-18 1.373460e+00)) ((-2.549895e-13 -2.148249e+03 3.406975e-14) (2.858003e-18 1.795199e+01 -1.563022e-17))
0.00213735    	((2.154126e+03 9.059583e-14 8.859576e+03) (1.833775e+01 1.055897e-18 1.362664e+00)) ((-3.526136e-13 -2.506723e+03 4.605912e-14) (2.810419e-18 1.816415e+01 -1.745431e-17))
0.00225565    	((5.606134e+03 1.623216e-13 1.385517e+04) (1.873119e+01 5.459163e-19 1.279392e+00)) ((-6.649410e-13 -2.449042e+03 8.607312e-14) (1.963549e-18 1.858898e+01 -2.224779e-17))
0.00236319    	((3.943776e+02 6.343234e-14 6.418895e+03) (1.889857e+01 4.066217e-19 1.290459e+00)) ((-2.329345e-13 -2.907381e+03 2.871085e-14) (3.619641e-18 1.876891e+01 -2.165076e-17))
0.00245602    	((1.723903e+02 6.822745e-14 8.207766e+03) (1.904650e+01 3.336433e-19 1.281639e+00)) ((-2.175749e-13 -3.818509e+03 3.230531e-14) (3.488680e-18 1.893096e+01 -2.139912e-17))
0.00254553    	((1.972438e+02 6.119981e-14 7.097747e+03) (1.915929e+01 1.064108e-18 1.309281e+00)) ((-1.983322e-13 -3.253066e+03 2.878976e-14) (2.299705e-18 1.904868e+01 -2.038978e-17))
0.00263237    	((1.151475e+02 6.841731e-14 8.385312e+03) (1.929658e+01 1.070396e-18 1.313938e+00)) ((-2.193244e-13 -4.169892e+03 3.140040e-14) (1.762628e-18 1.919608e+01 -1.986363e-17))
0.00271586    	((-8.575967e+00 8.186456e-14 1.038991e+04) (1.944227e+01 1.064917e-18 1.326113e+00)) ((-2.578079e-13 -5.657122e+03 3.596696e-14) (1.236627e-18 1.935008e+01 -1.972432e-17))
0.00279303    	((-3.506465e+02 1.471859e-13 1.884876e+04) (1.962328e+01 7.692972e-19 1.360474e+00)) ((-4.513631e-13 -1.177563e+04 5.986645e-14) (1.333559e-18 1.953382e+01 -2.359726e-17))
0.00286625    	((3.695187e+02 3.290474e-14 3.828740e+03) (1.977768e+01 8.659933e-19 1.370521e+00)) ((-1.499847e-13 -1.383944e+03 1.559526e-14) (9.036687e-19 1.969767e+01 -2.489539e-17))
0.00292878    	((6.595927e+02 3.759394e-14 3.097768e+03) (1.994158e+01 1.081272e-18 1.371654e+00)) ((-1.879439e-13 -1.190868e+03 1.603776e-14) (4.371820e-19 1.987235e+01 -2.624723e-17))
0.00299201    	((2.994604e+02 3.577952e-14 3.971805e+03) (2.009674e+01 1.162461e-18 1.374481e+00)) ((-1.407932e-13 -1.450091e+03 1.629241e-14) (4.688248e-19 2.003780e+01 -2.860563e-17))
0.00305667    	((3.460996e+02 3.483766e-14 3.124015e+03) (2.027218e+01 5.752701e-19 1.401766e+00)) ((-1.587886e-13 -1.228148e+03 1.457043e-14) (2.648206e-18 2.021864e+01 -2.838950e-17))
0.00312286    	((2.834681e+02 3.185944e-14 3.641474e+03) (2.043617e+01 7.740726e-19 1.386079e+00)) ((-1.324678e-13 -1.345580e+03 1.443730e-14) (2.695491e-18 2.039572e+01 -2.738772e-17))
0.0031901     	((3.387372e+02 3.173662e-14 3.029647e+03) (2.061546e+01 9.123731e-19 1.376327e+00)) ((-1.432383e-13 -1.183968e+03 1.329148e-14) (3.546099e-18 2.058271e+01 -2.551412e-17))
0.00325871    	((2.748753e+02 2.942741e-14 3.078488e+03) (2.080226e+01 9.765790e-19 1.366401e+00)) ((-1.312887e-13 -1.190817e+03 1.273773e-14) (4.545086e-18 2.077033e+01 -2.581371e-17))
0.00332965    	((2.355960e+02 2.379144e-14 2.589925e+03) (2.101681e+01 5.849834e-19 1.380580e+00)) ((-1.222426e-13 -1.048760e+03 1.132156e-14) (5.488337e-18 2.097816e+01 -2.020962e-17))
0.00340865    	((2.518726e+02 2.976308e-14 3.409964e+03) (2.123804e+01 4.339062e-19 1.374599e+00)) ((-1.328490e-13 -1.386943e+03 1.344322e-14) (6.387256e-18 2.119065e+01 -1.809850e-17))
0.00350346    	((2.183315e+02 3.257736e-14 3.878112e+03) (2.131622e+01 1.562821e-18 1.389035e+00)) ((-1.523729e-13 -1.989613e+03 1.221316e-14) (8.541632e-18 2.122510e+01 -1.435182e-18))
0.00361723    	((1.956697e+02 3.801660e-14 4.754306e+03) (2.221255e+01 1.603782e-18 1.433375e+00)) ((-1.476043e-13 -2.248608e+03 1.618212e-14) (1.026777e-17 2.202616e+01 1.290830e-17))
0.00374935    	((2.962248e+02 2.331924e-14 2.783737e+03) (2.356286e+01 7.649660e-19 1.528135e+00)) ((-1.049227e-13 -1.063766e+03 1.107521e-14) (8.956957e-18 2.324862e+01 2.700222e-17))
0.00390561    	((1.540610e+02 2.679160e-14 3.139295e+03) (2.542420e+01 5.892611e-19 1.629340e+00)) ((-1.150084e-13 -1.301530e+03 1.160872e-14) (7.519709e-18 2.493164e+01 5.978215e-17))
0.00408247    	((1.081251e+02 3.285439e-14 3.864155e+03) (2.696735e+01 3.449770e-19 1.746544e+00)) ((-1.352624e-13 -1.912378e+03 1.362939e-14) (7.260644e-18 2.630223e+01 8.812846e-17))
0.00428396    	((2.114813e+02 2.241853e-14 2.319859e+03) (2.845820e+01 2.056975e-19 1.832335e+00)) ((-1.162402e-13 -9.776563e+02 9.665073e-15) (7.500003e-18 2.766307e+01 8.023155e-17))
0.00450847    	((1.789263e+02 2.253869e-14 2.586795e+03) (2.918067e+01 3.277976e-19 1.846799e+00)) ((-1.016132e-13 -9.257781e+02 9.939731e-15) (4.796588e-18 2.831481e+01 8.879465e-17))
0.00461314    	((7.025667e+02 4.615674e-14 5.226741e+03) (2.943042e+01 5.351990e-19 1.873389e+00)) ((-1.953903e-13 -1.657507e+03 2.418217e-14) (3.067827e-18 2.853728e+01 9.263782e-17))
0.00472074    	((2.336233e+02 2.590710e-14 2.283235e+03) (2.955150e+01 7.031617e-19 1.913063e+00)) ((-1.094510e-13 -8.695081e+02 1.102818e-14) (2.642874e-18 2.863381e+01 9.189375e-17))
0.00483563    	((1.772611e+02 2.313310e-14 2.408804e+03) (2.958836e+01 7.580023e-19 1.928951e+00)) ((-1.015469e-13 -8.844560e+02 1.000550e-14) (3.295987e-18 2.865384e+01 9.373984e-17))
0.00494964    	((1.867305e+02 2.289205e-14 2.237071e+03) (2.955653e+01 7.790095e-19 1.941828e+00)) ((-1.035354e-13 -8.244248e+02 9.623314e-15) (3.857759e-18 2.861002e+01 9.496120e-17))
0.00506631    	((1.886723e+02 2.040557e-14 2.150681e+03) (2.951672e+01 9.056479e-19 1.934583e+00)) ((-9.982785e-14 -7.874603e+02 8.545809e-15) (5.229287e-18 2.856932e+01 9.928815e-17))
0.00520588    	((2.191300e+02 1.908166e-14 1.229134e+03) (2.940412e+01 6.482467e-19 1.956807e+00)) ((-1.240304e-13 -5.458156e+02 7.500824e-15) (7.023180e-18 2.844828e+01 1.009860e-16))
0.00536669    	((1.897205e+02 2.014614e-14 2.141348e+03) (2.910677e+01 1.535302e-19 1.967860e+00)) ((-9.514395e-14 -7.963709e+02 8.521984e-15) (8.420694e-18 2.814302e+01 1.156807e-16))
0.00554514    	((2.617793e+02 1.990358e-14 1.983446e+03) (2.999679e+01 -9.733526e-20 1.914834e+00)) ((-9.976817e-14 -7.212880e+02 7.986594e-15) (6.059387e-18 2.909932e+01 6.232270e-17))
0.00570399    	((1.821974e+02 1.899438e-14 2.153435e+03) (2.999020e+01 -1.834905e-19 1.888309e+00)) ((-9.297979e-14 -7.739778e+02 7.881066e-15) (5.777075e-18 2.912517e+01 6.390328e-17))
0.00585447    	((1.429765e+02 1.875194e-14 1.985414e+03) (2.999534e+01 -4.765413e-19 1.862828e+00)) ((-9.965835e-14 -7.441711e+02 7.453617e-15) (6.863731e-18 2.916305e+01 7.027458e-17))
0.00600337    	((1.404407e+02 1.952106e-14 2.080696e+03) (2.984470e+01 -1.349509e-19 1.833502e+00)) ((-9.308466e-14 -7.853035e+02 7.866705e-15) (6.415044e-18 2.904038e+01 7.816116e-17))
0.00615387    	((1.382831e+02 1.821855e-14 2.066954e+03) (2.956845e+01 -1.660143e-19 1.807885e+00)) ((-9.073894e-14 -7.737478e+02 7.342205e-15) (7.390868e-18 2.877888e+01 8.994023e-17))
0.00630772    	((1.459635e+02 1.819908e-14 1.979047e+03) (2.937399e+01 1.288629e-19 1.768042e+00)) ((-9.423509e-14 -7.531494e+02 7.271196e-15) (7.242470e-18 2.860594e+01 9.262086e-17))
0.0064651     	((1.516820e+02 1.751223e-14 1.721642e+03) (2.896419e+01 9.245307e-20 1.757169e+00)) ((-9.361171e-14 -6.772711e+02 7.043254e-15) (9.015089e-18 2.819284e+01 1.072874e-16))
0.00662433    	((1.500655e+02 2.106031e-14 1.643256e+03) (2.922297e+01 -4.543734e-19 1.689615e+00)) ((-1.071450e-13 -6.663053e+02 7.669200e-15) (7.684801e-18 2.850655e+01 8.183523e-17))
0.00678549    	((1.323227e+02 1.742982e-14 2.014919e+03) (2.891328e+01 -2.175772e-19 1.639206e+00)) ((-8.711395e-14 -7.539740e+02 6.957513e-15) (8.237756e-18 2.821759e+01 8.870687e-17))
0.00695067    	((1.288343e+02 1.707148e-14 1.980164e+03) (2.859756e+01 -4.751808e-19 1.570922e+00)) ((-8.550304e-14 -7.360031e+02 6.892417e-15) (9.794371e-18 2.792599e+01 9.547027e-17))
0.00711797    	((1.254951e+02 1.713034e-14 2.004822e+03) (2.819154e+01 -1.121409e-18 1.508305e+00)) ((-8.569933e-14 -7.578491e+02 6.837122e-15) (9.889820e-18 2.753642e+01 1.034560e-16))
0.00728103    	((1.240483e+02 1.736243e-14 2.039945e+03) (2.776872e+01 -5.674370e-19 1.385883e+00)) ((-8.628659e-14 -7.829759e+02 6.896014e-15) (9.153181e-18 2.714992e+01 1.166381e-16))
0.00745526    	((1.250568e+02 1.853333e-14 2.002820e+03) (2.812915e+01 -5.019540e-19 1.143343e+00)) ((-8.224800e-14 -7.864843e+02 7.282757e-15) (5.586984e-18 2.762616e+01 8.480495e-17))
0.00761014    	((1.199547e+02 1.737440e-14 2.035294e+03) (2.798251e+01 -1.111282e-18 9.367912e-01)) ((-8.617078e-14 -7.958677e+02 6.798313e-15) (5.357884e-18 2.755473e+01 8.636589e-17))
0.00774481    	((1.198118e+02 1.757672e-14 2.067871e+03) (2.784674e+01 -1.392695e-18 7.159945e-01)) ((-8.689835e-14 -8.140836e+02 6.882977e-15) (4.302573e-18 2.749497e+01 8.886610e-17))
0.00785423    	((1.189886e+02 1.767922e-14 2.013938e+03) (2.775314e+01 -6.875765e-19 5.015036e-01)) ((-8.923866e-14 -7.981700e+02 6.827749e-15) (1.621986e-18 2.747945e+01 9.328726e-17))
0.00794987    	((1.347333e+02 1.884276e-14 1.857564e+03) (2.766710e+01 4.243316e-19 3.075543e-01)) ((-9.612182e-14 -7.541950e+02 7.338454e-15) (-2.687338e-18 2.746560e+01 9.659934e-17))
0.00803656    	((1.483227e+02 1.920777e-14 2.115242e+03) (2.756533e+01 1.435211e-18 1.362277e-01)) ((-9.571692e-14 -8.379694e+02 7.741564e-15) (-7.324493e-18 2.742859e+01 1.000618e-16))
0.00811794    	((1.260830e+02 1.775592e-14 2.088571e+03) (2.726713e+01 2.335388e-18 1.808793e-02)) ((-8.879382e-14 -8.237055e+02 7.048165e-15) (-1.086034e-17 2.716397e+01 1.141237e-16))
0.00819663    	((1.308722e+02 1.793521e-14 2.102568e+03) (2.684503e+01 3.268904e-18 -8.462979e-02)) ((-8.962568e-14 -8.236370e+02 7.148994e-15) (-1.525948e-17 2.678206e+01 1.355789e-16))
0.0082748     	((1.275485e+02 1.732514e-14 2.018419e+03) (2.650159e+01 4.884050e-18 -2.045742e-01)) ((-8.845757e-14 -7.948958e+02 6.733010e-15) (-2.141916e-17 2.650843e+01 1.498367e-16))
0.00835402    	((1.620155e+02 1.802745e-14 1.971811e+03) (2.634525e+01 5.550323e-18 -3.308996e-01)) ((-9.463301e-14 -7.830085e+02 7.132593e-15) (-2.520066e-17 2.643502e+01 1.525091e-16))
0.00843604    	((1.809938e+02 2.006630e-14 2.200991e+03) (2.624844e+01 6.641653e-18 -4.600254e-01)) ((-1.004836e-13 -8.464265e+02 8.305262e-15) (-2.630350e-17 2.641463e+01 1.528372e-16))
0.00852107    	((1.507677e+02 1.870139e-14 2.122055e+03) (2.615344e+01 7.879172e-18 -5.719622e-01)) ((-9.318137e-14 -8.148938e+02 7.616916e-15) (-2.476164e-17 2.637643e+01 1.509666e-16))
0.00861005    	((1.978873e+02 2.160050e-14 2.341592e+03) (2.603754e+01 8.817546e-18 -6.926687e-01)) ((-1.057429e-13 -8.938138e+02 9.155590e-15) (-2.233358e-17 2.632665e+01 1.501329e-16))
0.00870265    	((4.436917e+02 3.506692e-14 3.273332e+03) (2.593060e+01 9.661894e-18 -8.625078e-01)) ((-1.673416e-13 -1.201841e+03 1.630216e-14) (-2.173473e-17 2.633804e+01 1.547591e-16))
0.00879376    	((1.371356e+02 1.830770e-14 2.159047e+03) (2.582055e+01 1.082430e-17 -1.045726e+00)) ((-8.898222e-14 -8.193509e+02 7.490768e-15) (-2.112573e-17 2.635628e+01 1.604769e-16))
0.00888063    	((1.293701e+02 1.741546e-14 2.041992e+03) (2.570535e+01 1.141806e-17 -1.206833e+00)) ((-8.745344e-14 -7.807152e+02 6.940743e-15) (-1.846638e-17 2.634984e+01 1.644749e-16))
0.00896423    	((1.267410e+02 1.718290e-14 2.013447e+03) (2.560997e+01 1.309472e-17 -1.316770e+00)) ((-8.699685e-14 -7.711397e+02 6.834900e-15) (-1.333117e-17 2.631780e+01 1.714524e-16))
0.00904479    	((1.219727e+02 1.687747e-14 1.977374e+03) (2.556628e+01 1.292484e-17 -1.359106e+00)) ((-8.581173e-14 -7.545233e+02 6.780405e-15) (-1.948599e-18 2.627747e+01 1.701894e-16))
0.0091214     	((1.198754e+02 1.474168e-14 1.838933e+03) (2.558207e+01 1.239155e-17 -1.381800e+00)) ((-8.039091e-14 -7.109047e+02 6.054497e-15) (1.161479e-17 2.629085e+01 1.678450e-16))
0.0091949     	((1.185865e+02 1.457856e-14 1.816809e+03) (2.557098e+01 1.192318e-17 -1.389912e+00)) ((-7.996251e-14 -7.033107e+02 5.960523e-15) (2.579437e-17 2.628101e+01 1.653961e-16))
0.00926552    	((1.185736e+02 1.618426e-14 1.900124e+03) (2.551938e+01 1.002612e-17 -1.399607e+00)) ((-8.388116e-14 -7.284880e+02 6.405753e-15) (4.112226e-17 2.625203e+01 1.642215e-16))
0.00933478    	((1.207906e+02 1.572112e-14 1.819118e+03) (2.544543e+01 7.728872e-18 -1.378702e+00)) ((-7.878281e-14 -7.031172e+02 6.294118e-15) (5.877182e-17 2.620164e+01 1.666121e-16))
0.00940314    	((1.226982e+02 1.590785e-14 1.844020e+03) (2.535058e+01 6.872955e-18 -1.327901e+00)) ((-8.138643e-14 -7.082765e+02 6.388482e-15) (7.543513e-17 2.612709e+01 1.682254e-16))
0.00947107    	((1.178963e+02 1.605055e-14 1.864227e+03) (2.523197e+01 6.016666e-18 -1.245417e+00)) ((-8.287408e-14 -7.155787e+02 6.300295e-15) (9.227072e-17 2.602232e+01 1.676573e-16))
0.009539      	((1.176611e+02 1.590692e-14 1.841528e+03) (2.510894e+01 4.942115e-18 -1.132872e+00)) ((-8.262203e-14 -7.036177e+02 6.205053e-15) (1.095302e-16 2.590537e+01 1.660686e-16))
0.00960737    	((1.175855e+02 1.587911e-14 1.834527e+03) (2.497566e+01 3.764562e-18 -1.001092e+00)) ((-8.257250e-14 -7.003802e+02 6.179991e-15) (1.267573e-16 2.577230e+01 1.687436e-16))
0.0096762     	((1.174226e+02 1.574187e-14 1.812021e+03) (2.485537e+01 1.886256e-18 -8.506018e-01)) ((-8.221896e-14 -6.901232e+02 6.103107e-15) (1.433528e-16 2.564679e+01 1.700901e-16))
0.00974691    	((1.177584e+02 1.568520e-14 1.811613e+03) (2.474641e+01 -1.538152e-19 -7.103135e-01)) ((-8.207833e-14 -6.891191e+02 6.078102e-15) (1.573431e-16 2.553608e+01 1.670092e-16))
0.00981963    	((1.163211e+02 1.555768e-14 1.804530e+03) (2.467520e+01 -2.338853e-18 -5.867119e-01)) ((-8.173246e-14 -6.890954e+02 6.003908e-15) (1.692026e-16 2.546998e+01 1.636990e-16))
0.00989448    	((1.158999e+02 1.551990e-14 1.805341e+03) (2.462840e+01 -4.650986e-18 -4.727139e-01)) ((-8.164285e-14 -6.904803e+02 5.980396e-15) (1.788934e-16 2.543169e+01 1.574402e-16))
0.00996934    	((1.134022e+02 1.580665e-14 1.850627e+03) (2.463620e+01 -6.985961e-18 -3.759754e-01)) ((-8.240264e-14 -7.204453e+02 6.096195e-15) (1.866241e-16 2.545526e+01 1.521428e-16))
0.0100426     	((1.156220e+02 1.555513e-14 1.817949e+03) (2.464736e+01 -8.887533e-18 -2.953725e-01)) ((-8.177365e-14 -6.977108e+02 5.987694e-15) (1.914407e-16 2.548457e+01 1.427063e-16))
0.0101142     	((1.150729e+02 1.542127e-14 1.799769e+03) (2.470742e+01 -1.048102e-17 -2.397957e-01)) ((-8.140206e-14 -6.893568e+02 5.916564e-15) (1.938502e-16 2.557215e+01 1.316730e-16))
0.0101848     	((1.151359e+02 1.535833e-14 1.792237e+03) (2.476439e+01 -1.199922e-17 -2.044222e-01)) ((-8.122093e-14 -6.853667e+02 5.884946e-15) (1.949737e-16 2.566144e+01 1.244934e-16))
0.0102549     	((1.156886e+02 1.532245e-14 1.787543e+03) (2.486062e+01 -1.306569e-17 -1.945453e-01)) ((-8.110410e-14 -6.816853e+02 5.871552e-15) (1.936292e-16 2.580013e+01 1.129012e-16))
0.0103245     	((1.153911e+02 1.532905e-14 1.788330e+03) (2.495523e+01 -1.411604e-17 -2.039848e-01)) ((-8.110678e-14 -6.824688e+02 5.867755e-15) (1.910041e-16 2.594229e+01 1.035865e-16))
0.0103936     	((1.143870e+02 1.533711e-14 1.790073e+03) (2.507055e+01 -1.515070e-17 -2.355207e-01)) ((-8.111734e-14 -6.861972e+02 5.860804e-15) (1.867069e-16 2.611342e+01 9.085959e-17))
0.0104622     	((1.152045e+02 1.544632e-14 1.803175e+03) (2.518519e+01 -1.617608e-17 -2.840295e-01)) ((-8.142555e-14 -6.908205e+02 5.918453e-15) (1.815361e-16 2.628873e+01 8.107908e-17))
0.0105309     	((1.147977e+02 1.550400e-14 1.779545e+03) (2.530029e+01 -1.729173e-17 -3.437869e-01)) ((-8.161370e-14 -6.815846e+02 5.917468e-15) (1.753131e-16 2.646781e+01 7.017105e-17))
0.0105995     	((1.104175e+02 1.839669e-14 1.440253e+03) (2.547191e+01 -1.855531e-17 -4.087189e-01)) ((-8.790104e-14 -5.837285e+02 6.957405e-15) (1.681242e-16 2.670769e+01 6.395708e-17))
0.0106676     	((1.137972e+02 1.536195e-14 1.759183e+03) (2.561140e+01 -1.975328e-17 -4.793342e-01)) ((-8.068742e-14 -6.761062e+02 5.850434e-15) (1.598102e-16 2.691473e+01 5.240389e-17))
0.0107352     	((1.139070e+02 1.535104e-14 1.767890e+03) (2.572292e+01 -2.080958e-17 -5.479038e-01)) ((-8.084925e-14 -6.782904e+02 5.842485e-15) (1.505701e-16 2.709023e+01 4.169473e-17))
0.0108024     	((1.147634e+02 1.553438e-14 1.791056e+03) (2.582619e+01 -2.162532e-17 -6.131762e-01)) ((-8.131837e-14 -6.876553e+02 5.936697e-15) (1.400228e-16 2.725455e+01 3.090434e-17))
0.0108695     	((1.138176e+02 1.549262e-14 1.783337e+03) (2.592771e+01 -2.227188e-17 -6.509040e-01)) ((-8.112630e-14 -6.861013e+02 5.903517e-15) (1.276610e-16 2.740529e+01 2.102482e-17))
0.0109361     	((1.139090e+02 1.557652e-14 1.771221e+03) (2.598944e+01 -2.289674e-17 -6.852085e-01)) ((-8.122150e-14 -6.804739e+02 5.915645e-15) (1.150483e-16 2.751209e+01 1.360288e-17))
0.0110028     	((1.131705e+02 1.577252e-14 1.734248e+03) (2.605882e+01 -2.366585e-17 -7.111156e-01)) ((-8.129100e-14 -6.676590e+02 5.934331e-15) (1.014510e-16 2.762246e+01 4.092220e-18))
0.0110699     	((1.140315e+02 1.563974e-14 1.742783e+03) (2.611992e+01 -2.509183e-17 -7.081280e-01)) ((-8.095907e-14 -6.681889e+02 5.912618e-15) (9.028813e-17 2.771094e+01 -1.102056e-17))
0.0111371     	((1.140952e+02 1.566284e-14 1.771261e+03) (2.618296e+01 -2.679827e-17 -6.876196e-01)) ((-8.111470e-14 -6.802877e+02 5.954899e-15) (8.210429e-17 2.779224e+01 -1.886450e-17))
0.0112053     	((1.147551e+02 1.582469e-14 1.802835e+03) (2.626654e+01 -2.865948e-17 -6.594344e-01)) ((-8.158993e-14 -6.938271e+02 6.050529e-15) (7.625926e-17 2.788977e+01 -2.741958e-17))
0.0112745     	((1.135202e+02 1.541208e-14 1.764673e+03) (2.635525e+01 -3.030509e-17 -6.462568e-01)) ((-8.075615e-14 -6.767618e+02 5.853960e-15) (7.217471e-17 2.799558e+01 -4.013121e-17))
0.0113454     	((1.133606e+02 1.520946e-14 1.750339e+03) (2.647715e+01 -3.163647e-17 -6.469407e-01)) ((-8.043868e-14 -6.694026e+02 5.766996e-15) (6.911557e-17 2.813943e+01 -5.036225e-17))
0.0114182     	((1.138324e+02 1.514924e-14 1.747942e+03) (2.662867e+01 -3.280064e-17 -6.553818e-01)) ((-8.038397e-14 -6.667600e+02 5.749290e-15) (6.682401e-17 2.831522e+01 -5.449354e-17))
0.0114922     	((1.157352e+02 1.536629e-14 1.779194e+03) (2.677303e+01 -3.385282e-17 -6.650853e-01)) ((-8.103301e-14 -6.773979e+02 5.876080e-15) (6.404785e-17 2.848193e+01 -6.450863e-17))
0.0115674     	((1.151154e+02 1.520453e-14 1.760522e+03) (2.693189e+01 -3.437364e-17 -6.777850e-01)) ((-8.063023e-14 -6.694702e+02 5.793496e-15) (6.097017e-17 2.866285e+01 -7.135185e-17))
0.0116441     	((1.132176e+02 1.506013e-14 1.742554e+03) (2.707905e+01 -3.630508e-17 -6.898180e-01)) ((-8.024027e-14 -6.654397e+02 5.707372e-15) (5.948338e-17 2.882939e+01 -7.899262e-17))
0.0117201     	((1.146358e+02 1.519522e-14 1.760062e+03) (2.722341e+01 -3.874932e-17 -6.971641e-01)) ((-8.061344e-14 -6.708136e+02 5.789271e-15) (5.916423e-17 2.898898e+01 -8.330517e-17))
0.0117974     	((1.134545e+02 1.513112e-14 1.753939e+03) (2.740398e+01 -4.145548e-17 -7.066254e-01)) ((-8.046518e-14 -6.705768e+02 5.747116e-15) (5.878162e-17 2.918667e+01 -8.833415e-17))
0.0118763     	((1.138210e+02 1.502571e-14 1.741979e+03) (2.753913e+01 -4.417507e-17 -7.082634e-01)) ((-8.021806e-14 -6.635577e+02 5.701716e-15) (5.829697e-17 2.933191e+01 -9.321035e-17))
0.0119576     	((1.137260e+02 1.512941e-14 1.757700e+03) (2.768968e+01 -4.639464e-17 -7.089003e-01)) ((-8.051837e-14 -6.718706e+02 5.754726e-15) (5.760362e-17 2.949209e+01 -9.213806e-17))
0.0120405     	((1.133287e+02 1.489214e-14 1.726421e+03) (2.783133e+01 -4.764122e-17 -7.047926e-01)) ((-7.991925e-14 -6.567687e+02 5.637612e-15) (5.559252e-17 2.964019e+01 -9.436818e-17))
0.0121251     	((1.162302e+02 1.508139e-14 1.752220e+03) (2.797514e+01 -4.860915e-17 -6.968659e-01)) ((-8.047396e-14 -6.625426e+02 5.761531e-15) (5.343313e-17 2.978820e+01 -9.512676e-17))
0.0122126     	((1.150850e+02 1.494985e-14 1.734200e+03) (2.810556e+01 -4.927665e-17 -6.908887e-01)) ((-8.015340e-14 -6.561239e+02 5.687083e-15) (5.171167e-17 2.992241e+01 -8.811094e-17))
0.0123032     	((1.163411e+02 1.513858e-14 1.761576e+03) (2.821461e+01 -4.919557e-17 -6.844824e-01)) ((-8.068622e-14 -6.667185e+02 5.793352e-15) (4.843118e-17 3.003290e+01 -8.658666e-17))
0.0123959     	((1.151162e+02 1.507360e-14 1.741925e+03) (2.832438e+01 -4.818356e-17 -6.776269e-01)) ((-8.030314e-14 -6.601508e+02 5.740888e-15) (4.491767e-17 3.014272e+01 -7.812065e-17))
0.0124638     	((1.124723e+02 1.958284e-14 1.596510e+03) (2.847915e+01 -4.650287e-17 -8.161238e-01)) ((-7.725965e-14 -6.141004e+02 7.153060e-15) (3.882525e-17 3.036279e+01 -7.298555e-17))
0.0125311     	((1.123926e+02 1.880989e-14 1.536540e+03) (2.810387e+01 -3.506199e-17 -2.403531e+00)) ((-8.059234e-14 -5.967990e+02 6.966966e-15) (-5.213645e-18 3.065326e+01 -3.825177e-17))
0.0125978     	((1.141239e+02 1.524067e-14 1.741603e+03) (2.760953e+01 -1.927845e-17 -3.954305e+00)) ((-8.045311e-14 -6.626631e+02 5.805331e-15) (-1.564142e-17 3.081475e+01 -1.326606e-18))
0.0126645     	((1.151950e+02 1.535546e-14 1.744006e+03) (2.730413e+01 -1.075738e-17 -4.871658e+00)) ((-8.071913e-14 -6.618767e+02 5.863381e-15) (1.285574e-17 3.090346e+01 3.153026e-17))
0.0127306     	((1.170956e+02 1.617712e-14 1.808858e+03) (2.750550e+01 -8.635822e-18 -5.197228e+00)) ((-8.259320e-14 -6.923943e+02 6.251347e-15) (2.439102e-17 3.125922e+01 4.410033e-17))
0.0127966     	((1.150143e+02 1.563487e-14 1.751361e+03) (2.766792e+01 -8.684546e-18 -5.805978e+00)) ((-8.133800e-14 -6.676095e+02 5.975601e-15) (6.121721e-17 3.170668e+01 5.202761e-17))
0.0128627     	((1.142228e+02 1.541225e-14 1.730888e+03) (2.759999e+01 -9.046229e-18 -6.049139e+00)) ((-8.086141e-14 -6.585159e+02 5.873705e-15) (6.019830e-17 3.174221e+01 5.522075e-17))
0.0129294     	((1.176097e+02 1.541851e-14 1.742944e+03) (2.760758e+01 -9.296132e-18 -6.280536e+00)) ((-8.108162e-14 -6.547258e+02 5.924549e-15) (6.339483e-17 3.185073e+01 5.546274e-17))
0.0129968     	((1.179633e+02 1.541582e-14 1.742055e+03) (2.756234e+01 -7.600882e-18 -6.465932e+00)) ((-8.107531e-14 -6.533055e+02 5.935322e-15) (6.454263e-17 3.187985e+01 5.687395e-17))
0.0130654     	((1.156593e+02 1.524344e-14 1.731184e+03) (2.752631e+01 -4.321441e-18 -6.687943e+00)) ((-8.066979e-14 -6.532321e+02 5.832672e-15) (6.331302e-17 3.193094e+01 6.088321e-17))
0.0131348     	((1.154566e+02 1.520227e-14 1.737511e+03) (2.751863e+01 -4.883512e-19 -6.949280e+00)) ((-8.062447e-14 -6.571598e+02 5.810457e-15) (5.949920e-17 3.202586e+01 6.264470e-17))
0.0132056     	((1.159459e+02 1.524751e-14 1.748174e+03) (2.760253e+01 2.781361e-18 -7.205962e+00)) ((-8.076000e-14 -6.611226e+02 5.837731e-15) (5.886137e-17 3.221324e+01 5.917154e-17))
0.0132778     	((1.137127e+02 1.511301e-14 1.736612e+03) (2.778956e+01 1.553163e-18 -7.524193e+00)) ((-8.045386e-14 -6.607676e+02 5.756627e-15) (6.084386e-17 3.253574e+01 4.825292e-17))
0.0133517     	((1.149646e+02 1.513008e-14 1.737078e+03) (2.791756e+01 1.155800e-18 -7.808427e+00)) ((-8.047633e-14 -6.575870e+02 5.779877e-15) (6.492694e-17 3.277646e+01 4.412700e-17))
0.0134264     	((1.149336e+02 1.506580e-14 1.727561e+03) (2.803129e+01 2.065455e-18 -8.098209e+00)) ((-8.029123e-14 -6.529399e+02 5.750607e-15) (6.668043e-17 3.300157e+01 4.322581e-17))
0.0135028     	((1.160310e+02 1.521635e-14 1.742751e+03) (2.811961e+01 3.360152e-18 -8.397892e+00)) ((-8.062036e-14 -6.579954e+02 5.835047e-15) (6.616855e-17 3.320137e+01 3.896686e-17))
0.0135802     	((1.161229e+02 1.521175e-14 1.744984e+03) (2.819996e+01 4.608832e-18 -8.694419e+00)) ((-8.066742e-14 -6.585939e+02 5.833695e-15) (6.530315e-17 3.338800e+01 4.212387e-17))
0.0136595     	((1.254058e+02 1.659501e-14 1.919521e+03) (2.826297e+01 5.627588e-18 -9.000260e+00)) ((-8.427654e-14 -7.234031e+02 6.591558e-15) (6.318418e-17 3.355703e+01 3.889653e-17))
0.0137407     	((1.165768e+02 1.531616e-14 1.760524e+03) (2.832566e+01 6.424473e-18 -9.312495e+00)) ((-8.098850e-14 -6.653373e+02 5.884168e-15) (6.133735e-17 3.372516e+01 4.244660e-17))
0.0138231     	((1.256049e+02 1.626522e-14 1.867339e+03) (2.838607e+01 8.126745e-18 -9.625474e+00)) ((-8.328055e-14 -6.976761e+02 6.426250e-15) (5.727571e-17 3.388871e+01 4.109663e-17))
0.0139003     	((1.172412e+02 1.533330e-14 1.756094e+03) (2.845345e+01 9.919881e-18 -9.918851e+00)) ((-8.097338e-14 -6.609969e+02 5.906994e-15) (5.262644e-17 3.405123e+01 4.095003e-17))
0.0139862     	((1.200857e+02 1.555859e-14 1.776009e+03) (2.849674e+01 1.134207e-17 -1.022274e+01)) ((-8.143168e-14 -6.646751e+02 6.039392e-15) (4.740920e-17 3.418729e+01 4.188034e-17))
0.014076      	((1.197719e+02 1.566866e-14 1.793830e+03) (2.853054e+01 1.325870e-17 -1.051879e+01)) ((-8.176208e-14 -6.744057e+02 6.094163e-15) (4.090042e-17 3.430701e+01 4.085104e-17))
0.0141618     	((1.177773e+02 1.537706e-14 1.762009e+03) (2.856655e+01 1.522639e-17 -1.078850e+01)) ((-8.107414e-14 -6.630476e+02 5.938788e-15) (3.424998e-17 3.441811e+01 4.153659e-17))
0.0142377     	((1.398118e+02 1.826358e-14 2.117680e+03) (2.863462e+01 1.697082e-17 -1.102098e+01)) ((-8.853204e-14 -7.859509e+02 7.537473e-15) (2.805398e-17 3.455233e+01 4.259245e-17))
0.0143224     	((1.343441e+02 1.746582e-14 2.009172e+03) (2.862957e+01 1.870970e-17 -1.124700e+01)) ((-8.628866e-14 -7.475442e+02 7.089428e-15) (2.094277e-17 3.460190e+01 4.119404e-17))
0.0144111     	((3.569359e+02 4.508732e-14 5.366936e+03) (2.868154e+01 2.015432e-17 -1.145597e+01)) ((-1.568775e-13 -1.893465e+03 2.255769e-14) (1.367631e-17 3.470737e+01 4.432763e-17))