# Forces      
# CofR        : (0.000000e+00 0.000000e+00 -1.000000e+00)
# Time        forces(pressure viscous)	moments(pressure viscous)
0             	((-3.552714e-15 4.864098e-14 5.917489e-14) (2.161012e+01 -1.462040e-17 3.969715e+00)) ((-4.335934e-14 -2.291500e-13 2.608116e-14) (-1.910843e-17 1.972034e+01 1.335429e-16))
1.19976e-05   	((1.763659e+05 -6.112637e-12 1.700271e+06) (2.191020e+01 -1.429926e-17 3.402808e+00)) ((-1.706772e-11 -4.589446e+05 -3.016251e-12) (-4.388121e-18 2.021799e+01 1.361359e-16))
2.63878e-05   	((1.949241e+04 -1.485467e-12 3.186367e+05) (2.191318e+01 -1.352867e-17 3.176650e+00)) ((-1.618245e-12 -1.193460e+05 -8.862515e-13) (-8.446686e-19 2.030693e+01 1.364165e-16))
4.36511e-05   	((1.213304e+04 -6.750451e-13 1.664060e+05) (2.192492e+01 -1.281431e-17 3.016827e+00)) ((-1.182173e-12 -5.687932e+04 -3.944968e-13) (9.554253e-19 2.039600e+01 1.366183e-16))
6.43527e-05   	((8.322063e+03 -4.577577e-13 1.137221e+05) (2.194059e+01 -1.166632e-17 2.854429e+00)) ((-8.555603e-13 -3.852764e+04 -2.661296e-13) (2.234642e-18 2.049920e+01 1.374444e-16))
8.91792e-05   	((6.009429e+03 -3.149338e-13 8.011691e+04) (2.195465e+01 -1.022296e-17 2.669236e+00)) ((-6.221340e-13 -2.700214e+04 -1.836992e-13) (3.136556e-18 2.061770e+01 1.385247e-16))
0.000118941   	((4.553365e+03 -2.241056e-13 5.868693e+04) (2.196420e+01 -8.485205e-18 2.462789e+00)) ((-4.668251e-13 -1.970914e+04 -1.311323e-13) (4.032687e-18 2.074810e+01 1.398859e-16))
0.000154634   	((3.736923e+03 -1.548550e-13 4.321777e+04) (2.196807e+01 -6.586584e-18 2.251912e+00)) ((-3.611067e-13 -1.436474e+04 -9.371095e-14) (5.560980e-18 2.088404e+01 1.409032e-16))
0.000197405   	((2.793178e+03 -1.143861e-13 3.309841e+04) (2.196172e+01 -4.924438e-18 2.025532e+00)) ((-2.847511e-13 -1.075919e+04 -6.674689e-14) (7.237466e-18 2.101527e+01 1.422933e-16))
0.000248707   	((2.366940e+03 -8.398682e-14 2.560103e+04) (2.194669e+01 -4.258347e-18 1.830128e+00)) ((-2.271407e-13 -8.185914e+03 -4.939896e-14) (9.408670e-18 2.111419e+01 1.429206e-16))
0.000310237   	((1.553686e+03 -9.039566e-14 2.492418e+04) (2.190395e+01 -4.508172e-18 1.663723e+00)) ((-1.580012e-13 -1.038861e+04 -5.828720e-14) (1.225807e-17 2.117870e+01 1.431558e-16))
0.000383982   	((1.446489e+03 -6.846210e-14 2.001126e+04) (2.183140e+01 -4.618054e-18 1.506021e+00)) ((-1.395322e-13 -7.837961e+03 -4.324506e-14) (1.503621e-17 2.120967e+01 1.461773e-16))
0.000472342   	((1.318917e+03 -4.434346e-14 1.542100e+04) (2.175441e+01 -4.118589e-18 1.396729e+00)) ((-1.263736e-13 -5.693827e+03 -3.039592e-14) (1.736170e-17 2.120887e+01 1.491461e-16))
0.000577897   	((1.330546e+03 -2.716938e-14 1.214665e+04) (2.172135e+01 -3.598349e-18 1.309879e+00)) ((-1.233520e-13 -3.690374e+03 -1.648938e-14) (1.870582e-17 2.123013e+01 1.531615e-16))
0.000701605   	((1.054806e+03 -1.217126e-14 9.426584e+03) (2.168765e+01 -3.090435e-18 1.236510e+00)) ((-1.074440e-13 -2.870958e+03 -9.181873e-15) (1.951290e-17 2.123611e+01 1.593691e-16))
0.000809417   	((1.209526e+03 -1.957679e-14 1.045322e+04) (2.166511e+01 -2.557016e-18 1.198512e+00)) ((-1.096152e-13 -3.206902e+03 -1.278987e-14) (2.007022e-17 2.124542e+01 1.630997e-16))
0.00092099    	((1.086598e+03 -1.495215e-14 9.380922e+03) (2.163587e+01 -2.144981e-18 1.165789e+00)) ((-1.031345e-13 -2.785439e+03 -9.448064e-15) (2.003512e-17 2.125247e+01 1.650907e-16))
0.00103256    	((1.002358e+03 -9.604331e-15 8.210923e+03) (2.160024e+01 -1.635798e-18 1.166951e+00)) ((-9.932444e-14 -2.542241e+03 -8.071361e-15) (1.994967e-17 2.124762e+01 1.667919e-16))
0.00114348    	((9.401171e+02 -9.356213e-15 7.975992e+03) (2.155833e+01 -1.372306e-18 1.178081e+00)) ((-9.104346e-14 -2.405047e+03 -6.553857e-15) (2.043819e-17 2.123403e+01 1.671597e-16))
0.00125777    	((8.955820e+02 -8.486714e-15 7.540627e+03) (2.151552e+01 -1.059538e-18 1.201422e+00)) ((-8.631823e-14 -2.277804e+03 -5.752746e-15) (2.194846e-17 2.121615e+01 1.662775e-16))
0.00136486    	((1.038154e+03 -1.086954e-14 6.787065e+03) (2.151556e+01 -7.114143e-19 1.235014e+00)) ((-8.588174e-14 -1.952541e+03 -5.880795e-15) (2.347125e-17 2.122797e+01 1.672387e-16))
0.00144996    	((9.496024e+02 -1.090222e-14 7.698811e+03) (2.153502e+01 -5.570962e-19 1.257433e+00)) ((-8.520714e-14 -2.423963e+03 -7.586683e-15) (2.459890e-17 2.125558e+01 1.665882e-16))
0.00153505    	((9.607954e+02 -1.798253e-14 8.544535e+03) (2.154856e+01 -4.418613e-19 1.276278e+00)) ((-7.803810e-14 -3.014165e+03 -1.250770e-14) (2.544492e-17 2.127807e+01 1.652414e-16))
0.00161498    	((1.204525e+03 -3.409034e-14 8.224335e+03) (2.156910e+01 -2.155938e-19 1.300464e+00)) ((-6.355930e-14 -2.861714e+03 -1.625640e-14) (2.605406e-17 2.130583e+01 1.616779e-16))
0.00169527    	((1.144714e+03 -1.835096e-14 7.978526e+03) (2.157269e+01 -2.198444e-20 1.315601e+00)) ((-7.825153e-14 -2.677236e+03 -1.213483e-14) (2.620269e-17 2.131720e+01 1.603000e-16))
0.00177451    	((1.584260e+03 -2.014557e-14 8.395105e+03) (2.159547e+01 1.631870e-19 1.330878e+00)) ((-9.500870e-14 -2.420771e+03 -1.310478e-14) (2.580651e-17 2.134839e+01 1.592088e-16))
0.00185173    	((2.318976e+03 -3.033515e-14 9.844012e+03) (2.165994e+01 3.251261e-19 1.347663e+00)) ((-1.169196e-13 -2.551505e+03 -1.959235e-14) (2.532723e-17 2.142185e+01 1.567610e-16))
0.00192767    	((1.072259e+04 -1.432485e-13 1.967241e+04) (2.197441e+01 3.333349e-19 1.351846e+00)) ((-3.847243e-13 -1.776621e+03 -8.739505e-14) (2.743965e-17 2.174562e+01 1.445353e-16))
0.00200624    	((4.423348e+02 -1.469007e-14 8.157376e+03) (2.218315e+01 6.715082e-19 1.379380e+00)) ((-6.522840e-14 -3.148974e+03 -9.713359e-15) (2.690431e-17 2.197199e+01 1.366568e-16))
0.00207822    	((3.878196e+02 -1.202864e-14 7.524747e+03) (2.242371e+01 1.047367e-18 1.391932e+00)) ((-6.048161e-14 -2.939713e+03 -8.184851e-15) (2.607456e-17 2.223377e+01 1.276291e-16))
0.00214823    	((3.321690e+02 -2.077666e-14 8.628788e+03) (2.261385e+01 6.729555e-19 1.461326e+00)) ((-6.508997e-14 -3.815433e+03 -1.598972e-14) (2.835325e-17 2.242996e+01 1.246184e-16))
0.00221689    	((1.461765e+02 -6.101814e-14 1.401155e+04) (2.282296e+01 7.241902e-19 1.497677e+00)) ((-3.370336e-14 -7.195145e+03 -4.230361e-14) (2.879356e-17 2.265111e+01 1.206038e-16))
0.00228718    	((2.741615e+02 -1.469972e-14 7.313752e+03) (2.300835e+01 8.706415e-19 1.517401e+00)) ((-5.313781e-14 -3.206569e+03 -1.115504e-14) (2.892128e-17 2.285102e+01 1.160997e-16))
0.00235159    	((2.633930e+02 -1.323622e-14 7.055089e+03) (2.319538e+01 9.423928e-19 1.543285e+00)) ((-4.897346e-14 -3.095970e+03 -1.010949e-14) (2.848163e-17 2.304995e+01 1.167555e-16))
0.00241395    	((3.239942e+02 -2.304018e-14 8.110419e+03) (2.349215e+01 9.375976e-19 1.585266e+00)) ((-8.392485e-14 -4.302088e+03 -2.354856e-14) (2.806469e-17 2.335611e+01 1.179373e-16))
0.00247296    	((1.069382e+02 -3.329071e-14 9.584001e+03) (2.371054e+01 9.577433e-19 1.593597e+00)) ((-2.664657e-14 -4.874094e+03 -2.367235e-14) (2.758824e-17 2.358494e+01 1.177246e-16))
0.00253861    	((-6.295810e+02 -1.411677e-13 2.372229e+04) (2.390986e+01 1.041893e-18 1.594046e+00)) ((6.918827e-14 -1.451664e+04 -9.704825e-14) (2.714102e-17 2.379009e+01 1.199186e-16))
0.00261726    	((-1.418622e+02 -5.715072e-14 1.236448e+04) (2.392398e+01 2.431645e-18 1.716116e+00)) ((2.698765e-15 -7.421341e+03 -4.206421e-14) (4.175025e-17 2.367345e+01 1.385805e-16))
0.00270595    	((2.471086e+02 -2.106313e-14 6.029438e+03) (2.386567e+01 2.080659e-18 1.744210e+00)) ((-2.978706e-14 -3.116785e+03 -1.289565e-14) (4.353523e-17 2.360786e+01 1.540275e-16))
0.00280708    	((4.715341e+02 -6.512937e-15 4.000987e+03) (2.409626e+01 1.174553e-18 1.700953e+00)) ((-6.394000e-14 -1.887006e+03 -6.404063e-15) (4.402469e-17 2.384730e+01 1.495823e-16))
0.00292019    	((5.933087e+02 -1.369411e-14 2.629046e+03) (2.427222e+01 1.404842e-18 1.653878e+00)) ((-4.684714e-14 -1.134843e+03 -4.309195e-15) (4.151153e-17 2.402492e+01 1.534293e-16))
0.00304578    	((2.256124e+02 5.126271e-15 3.759846e+03) (2.439854e+01 9.176048e-19 1.590282e+00)) ((-3.835148e-14 -1.414499e+03 2.430585e-15) (3.913797e-17 2.414975e+01 1.526256e-16))
0.0031859     	((3.569891e+02 2.230660e-15 3.685085e+03) (2.478811e+01 1.227143e-18 1.618247e+00)) ((-4.347820e-14 -1.287370e+03 1.416452e-15) (4.012573e-17 2.447779e+01 1.594228e-16))
0.00334158    	((3.240462e+02 5.486849e-15 3.505968e+03) (2.696532e+01 1.378819e-18 1.794431e+00)) ((-4.091890e-14 -1.239508e+03 2.718072e-15) (4.346899e-17 2.638788e+01 1.947981e-16))
0.00340566    	((1.708108e+03 -1.689259e-14 7.342262e+03) (2.822022e+01 1.722633e-18 1.850111e+00)) ((-9.242635e-14 -1.977245e+03 -1.235442e-14) (4.381325e-17 2.754768e+01 1.680424e-16))
0.00346997    	((3.270753e+02 -1.127373e-15 4.959730e+03) (2.888970e+01 1.405255e-18 1.883713e+00)) ((-4.096821e-14 -2.167390e+03 -3.873409e-15) (4.402046e-17 2.814499e+01 1.793457e-16))
0.0035338     	((4.677482e+02 -1.886306e-14 2.864700e+03) (2.954584e+01 1.369955e-18 1.948431e+00)) ((-6.944495e-14 -1.143891e+03 -6.295762e-15) (4.623869e-17 2.874295e+01 1.955659e-16))
0.00361038    	((2.914588e+02 4.693705e-15 3.799045e+03) (2.968259e+01 1.090654e-18 2.015271e+00)) ((-4.252320e-14 -1.566557e+03 4.853018e-16) (5.143225e-17 2.879102e+01 2.530802e-16))
0.00370195    	((2.535894e+02 7.764623e-15 3.276373e+03) (3.146093e+01 2.999150e-18 1.981418e+00)) ((-4.330261e-14 -1.290596e+03 2.643406e-15) (4.422461e-17 3.057977e+01 1.265045e-16))
0.00381133    	((2.299239e+02 7.617267e-15 2.819143e+03) (3.186923e+01 2.985157e-18 1.956116e+00)) ((-4.442886e-14 -1.075587e+03 3.515528e-15) (4.236568e-17 3.098696e+01 1.319287e-16))
0.0039378     	((2.305839e+02 9.342860e-15 2.547910e+03) (3.193093e+01 2.939287e-18 1.936332e+00)) ((-5.231806e-14 -9.677184e+02 3.771444e-15) (4.065260e-17 3.104246e+01 1.273778e-16))
0.00408251    	((5.177409e+02 -1.716202e-14 1.263818e+03) (3.192470e+01 1.698139e-18 1.940031e+00)) ((-4.130183e-14 -5.127735e+02 -3.222687e-15) (4.078859e-17 3.103914e+01 1.198529e-16))
0.00424493    	((5.855339e+02 -7.652284e-15 1.447706e+03) (3.156757e+01 1.348953e-18 1.904260e+00)) ((-4.660951e-14 -5.186521e+02 -6.094576e-16) (4.037485e-17 3.068522e+01 1.315141e-16))
0.00442602    	((1.526842e+02 1.144590e-14 2.506755e+03) (3.103427e+01 1.101036e-18 1.873518e+00)) ((-3.200383e-14 -9.028474e+02 6.222960e-15) (4.440724e-17 3.014278e+01 1.727187e-16))
0.00450199    	((1.658128e+02 1.011243e-14 2.827776e+03) (3.067619e+01 8.306084e-19 1.914975e+00)) ((-3.438188e-14 -1.023371e+03 5.484929e-15) (4.846969e-17 2.976405e+01 1.949541e-16))
0.00457872    	((1.667166e+02 9.574848e-15 2.567047e+03) (3.014307e+01 3.641522e-19 1.962420e+00)) ((-4.689112e-14 -9.471286e+02 5.162279e-15) (5.284726e-17 2.919660e+01 2.265558e-16))
0.00465621    	((1.687297e+02 8.154780e-15 2.567036e+03) (2.959051e+01 4.234797e-19 1.986730e+00)) ((-3.868301e-14 -9.425767e+02 4.945067e-15) (5.644245e-17 2.860973e+01 2.595806e-16))
0.0047341     	((1.653389e+02 8.382396e-15 2.430162e+03) (3.022982e+01 1.190533e-18 1.923541e+00)) ((-3.903113e-14 -8.861840e+02 5.182986e-15) (5.120752e-17 2.930124e+01 1.738292e-16))
0.00481159    	((1.616889e+02 9.998955e-15 2.483965e+03) (2.990338e+01 8.842390e-19 1.891003e+00)) ((-3.438115e-14 -8.931377e+02 5.777781e-15) (5.228485e-17 2.898815e+01 1.914849e-16))
0.00488869    	((1.580570e+02 1.096183e-14 2.492931e+03) (2.962153e+01 5.542608e-19 1.858739e+00)) ((-3.256347e-14 -8.942771e+02 6.089562e-15) (5.349448e-17 2.872168e+01 2.009604e-16))
0.00496618    	((1.625978e+02 7.036512e-15 2.348453e+03) (2.928955e+01 1.587890e-19 1.840236e+00)) ((-3.364257e-14 -8.520593e+02 4.976531e-15) (5.608741e-17 2.839803e+01 2.127506e-16))
0.00504448    	((1.587806e+02 1.078242e-14 2.432574e+03) (2.892257e+01 -6.813530e-19 1.811417e+00)) ((-3.225596e-14 -8.706630e+02 6.078099e-15) (5.898866e-17 2.804725e+01 2.312796e-16))
0.00512361    	((1.547627e+02 1.162104e-14 2.351993e+03) (2.857170e+01 -1.325516e-18 1.774005e+00)) ((-3.126765e-14 -8.382854e+02 6.441734e-15) (6.491989e-17 2.771014e+01 2.632837e-16))
0.00520317    	((1.779116e+02 8.135897e-15 1.482254e+03) (2.825992e+01 -2.262348e-18 1.784944e+00)) ((-9.679986e-15 -5.899681e+02 5.671033e-15) (6.750184e-17 2.739732e+01 2.842593e-16))
0.00528358    	((1.532506e+02 1.183105e-14 2.334410e+03) (2.914173e+01 -2.599337e-18 1.644805e+00)) ((-3.102424e-14 -8.323961e+02 6.516336e-15) (6.289075e-17 2.838331e+01 1.697223e-16))
0.00536444    	((1.592596e+02 1.116382e-14 2.191936e+03) (2.897231e+01 -3.969363e-18 1.536694e+00)) ((-3.327219e-14 -7.882118e+02 6.280492e-15) (6.639434e-17 2.826963e+01 1.781154e-16))
0.00544575    	((1.593958e+02 1.124637e-14 2.120719e+03) (2.875209e+01 -5.095130e-18 1.398596e+00)) ((-3.274366e-14 -7.619594e+02 6.336224e-15) (6.579575e-17 2.810111e+01 1.657449e-16))
0.00552798    	((1.588761e+02 1.319765e-14 2.155949e+03) (2.852500e+01 -6.472411e-18 1.223559e+00)) ((-2.920970e-14 -7.724581e+02 6.857025e-15) (6.497359e-17 2.793516e+01 1.837939e-16))
0.00561068    	((1.596976e+02 1.316618e-14 2.164500e+03) (2.819219e+01 -7.358147e-18 1.035411e+00)) ((-2.927602e-14 -7.737107e+02 7.075561e-15) (5.777818e-17 2.765869e+01 1.949781e-16))
0.00569434    	((1.707742e+02 1.157385e-14 1.907547e+03) (2.781283e+01 -8.206853e-18 8.867436e-01)) ((-3.571866e-14 -7.048866e+02 6.273108e-15) (4.300745e-17 2.733388e+01 2.058796e-16))
0.00576516    	((1.581942e+02 1.292149e-14 2.155887e+03) (2.763200e+01 -8.774896e-18 7.513907e-01)) ((-3.071377e-14 -7.732210e+02 6.855084e-15) (1.976471e-17 2.722902e+01 1.941157e-16))
0.00582814    	((1.726339e+02 1.154228e-14 2.072828e+03) (2.737568e+01 -9.234876e-18 6.354194e-01)) ((-4.059830e-14 -7.858496e+02 5.470253e-15) (6.123375e-19 2.703354e+01 1.917263e-16))
0.00588819    	((1.346599e+02 1.020475e-14 2.482998e+03) (2.664857e+01 -1.035701e-17 5.516097e-01)) ((-2.892175e-14 -9.970489e+02 5.184334e-15) (-5.999891e-18 2.630408e+01 2.375305e-16))
0.00594749    	((1.526560e+02 1.142878e-14 2.326580e+03) (2.841261e+01 -9.301640e-18 2.156196e-01)) ((-3.235713e-14 -9.367765e+02 5.321110e-15) (-3.579096e-17 2.830822e+01 4.250661e-17))
0.00600604    	((1.454932e+02 1.122419e-14 2.324267e+03) (2.832733e+01 -1.139918e-17 -6.601917e-02)) ((-3.040328e-14 -9.051747e+02 5.689520e-15) (-5.025502e-17 2.839042e+01 4.065114e-17))
0.0060641     	((1.822805e+02 5.787025e-15 1.950346e+03) (2.823705e+01 -1.291862e-17 -3.270381e-01)) ((-3.084218e-14 -7.897084e+02 4.491367e-15) (-6.069449e-17 2.844017e+01 2.980459e-17))
0.00612169    	((2.325687e+02 3.764705e-15 1.575887e+03) (2.810531e+01 -1.405334e-17 -5.737203e-01)) ((-3.383708e-14 -6.682950e+02 3.852121e-15) (-6.411764e-17 2.842705e+01 4.806967e-17))
0.00617904    	((2.268990e+02 3.662864e-15 1.586800e+03) (2.795303e+01 -1.498672e-17 -8.050195e-01)) ((-3.368044e-14 -6.598459e+02 3.968540e-15) (-6.488760e-17 2.837986e+01 5.509753e-17))
0.00623615    	((1.461395e+02 1.201422e-14 2.231958e+03) (2.774354e+01 -1.496386e-17 -1.017121e+00)) ((-2.851064e-14 -8.236930e+02 6.549552e-15) (-6.173493e-17 2.826207e+01 7.370440e-17))
0.00629326    	((1.656886e+02 9.727809e-15 1.973030e+03) (2.750487e+01 -1.382564e-17 -1.211506e+00)) ((-2.075507e-14 -7.540071e+02 6.411244e-15) (-5.400392e-17 2.810104e+01 1.071162e-16))
0.00635061    	((1.859440e+02 2.239780e-15 1.209370e+03) (2.735026e+01 -1.337358e-17 -1.380133e+00)) ((-1.187678e-14 -5.455829e+02 3.240440e-15) (-3.937955e-17 2.802245e+01 1.073988e-16))
0.00640919    	((1.562546e+02 1.012300e-14 2.067616e+03) (2.822274e+01 -1.256744e-17 -1.615517e+00)) ((-2.881601e-14 -7.954632e+02 5.881232e-15) (-2.877339e-17 2.903311e+01 1.920563e-17))
0.00646559    	((2.051268e+02 6.833169e-15 1.761039e+03) (2.808658e+01 -1.260892e-17 -1.811225e+00)) ((-3.126441e-14 -7.076284e+02 4.794798e-15) (-1.083554e-17 2.900305e+01 4.223690e-17))
0.00651929    	((1.564643e+02 1.066991e-14 2.193672e+03) (2.787105e+01 -1.267878e-17 -1.972805e+00)) ((-2.945010e-14 -8.438168e+02 5.762712e-15) (1.060596e-17 2.887073e+01 6.625732e-17))
0.00657075    	((1.470489e+02 1.126115e-14 2.187513e+03) (2.762824e+01 -1.250402e-17 -2.096290e+00)) ((-2.904801e-14 -8.299107e+02 6.117426e-15) (3.717369e-17 2.868721e+01 1.015020e-16))
0.00662067    	((1.453878e+02 1.145388e-14 2.178770e+03) (2.732694e+01 -1.155225e-17 -2.201435e+00)) ((-2.910750e-14 -8.232950e+02 6.214236e-15) (6.554081e-17 2.844357e+01 1.438163e-16))
0.00666932    	((1.437677e+02 1.164939e-14 2.172163e+03) (2.774200e+01 -1.027902e-17 -2.296733e+00)) ((-2.921897e-14 -8.190921e+02 6.299350e-15) (9.429595e-17 2.892606e+01 1.017679e-16))
0.0067171     	((1.437184e+02 1.187632e-14 2.149996e+03) (2.751208e+01 -9.965734e-18 -2.362204e+00)) ((-2.947768e-14 -8.045358e+02 6.426720e-15) (1.315953e-16 2.874750e+01 1.455166e-16))
0.00676306    	((1.434067e+02 1.176697e-14 2.155382e+03) (2.715840e+01 -1.043568e-17 -2.385288e+00)) ((-2.971091e-14 -8.111605e+02 6.357641e-15) (1.735595e-16 2.841744e+01 1.838152e-16))
0.00680748    	((1.430741e+02 1.183981e-14 2.148623e+03) (2.702836e+01 -1.083596e-17 -2.389258e+00)) ((-3.000803e-14 -8.079154e+02 6.393017e-15) (2.181423e-16 2.830664e+01 2.092015e-16))
0.00685074    	((1.446702e+02 1.152008e-14 2.166652e+03) (2.678646e+01 -1.055701e-17 -2.372600e+00)) ((-3.043481e-14 -8.226196e+02 6.216667e-15) (2.614510e-16 2.807532e+01 2.454157e-16))
0.00689385    	((1.410257e+02 1.175947e-14 2.161530e+03) (2.676859e+01 -9.916446e-18 -2.347732e+00)) ((-3.062055e-14 -8.200677e+02 6.314450e-15) (3.016538e-16 2.807185e+01 2.560983e-16))
0.00693739    	((1.412211e+02 1.178785e-14 2.153539e+03) (2.639823e+01 -9.392578e-18 -2.357887e+00)) ((-3.001352e-14 -8.163721e+02 6.331037e-15) (3.315269e-16 2.771883e+01 3.003131e-16))
0.00698182    	((1.413344e+02 1.173287e-14 2.152605e+03) (2.668491e+01 -9.020317e-18 -2.428316e+00)) ((-2.922733e-14 -8.188799e+02 6.296716e-15) (3.505710e-16 2.805952e+01 2.775295e-16))
0.00702734    	((1.393093e+02 1.184690e-14 2.154904e+03) (2.638681e+01 -9.103544e-18 -2.506592e+00)) ((-2.854765e-14 -8.196632e+02 6.336626e-15) (3.664295e-16 2.780836e+01 3.098305e-16))
0.00707384    	((1.391689e+02 1.203822e-14 2.132369e+03) (2.620578e+01 -9.710876e-18 -2.581829e+00)) ((-2.818521e-14 -8.065572e+02 6.449586e-15) (3.815760e-16 2.766969e+01 3.325444e-16))
0.00712136    	((1.408691e+02 1.164303e-14 2.150486e+03) (2.633433e+01 -9.932769e-18 -2.686988e+00)) ((-2.792143e-14 -8.249464e+02 6.237825e-15) (3.923543e-16 2.786152e+01 3.143683e-16))
0.00716996    	((1.416725e+02 1.208314e-14 2.099015e+03) (2.603811e+01 -9.473206e-18 -2.770525e+00)) ((-2.770786e-14 -7.934838e+02 6.527206e-15) (4.051366e-16 2.761090e+01 3.509139e-16))
0.00721969    	((1.428883e+02 1.201252e-14 2.087069e+03) (2.641225e+01 -9.042401e-18 -2.881427e+00)) ((-2.743552e-14 -7.938609e+02 6.523461e-15) (4.139854e-16 2.806071e+01 3.111334e-16))
0.0072702     	((1.421191e+02 1.202133e-14 2.085003e+03) (2.615380e+01 -8.236104e-18 -2.986156e+00)) ((-2.792504e-14 -7.931453e+02 6.515312e-15) (4.241174e-16 2.786224e+01 3.379238e-16))
0.00732153    	((1.393014e+02 1.216822e-14 2.080582e+03) (2.605212e+01 -8.227716e-18 -3.094895e+00)) ((-2.838797e-14 -7.894842e+02 6.555573e-15) (4.356329e-16 2.781824e+01 3.493799e-16))
0.00737371    	((1.364124e+02 1.227573e-14 2.077634e+03) (2.612416e+01 -8.520162e-18 -3.215596e+00)) ((-2.829189e-14 -7.899638e+02 6.579963e-15) (4.464829e-16 2.796072e+01 3.393210e-16))
0.00742698    	((1.371566e+02 1.211171e-14 2.083448e+03) (2.586858e+01 -9.040613e-18 -3.321846e+00)) ((-2.864059e-14 -7.954786e+02 6.483772e-15) (4.599215e-16 2.776068e+01 3.655288e-16))
0.00748141    	((1.357119e+02 1.191928e-14 2.096711e+03) (2.640558e+01 -9.324070e-18 -3.466338e+00)) ((-2.871703e-14 -8.102699e+02 6.356743e-15) (4.696742e-16 2.839301e+01 3.119803e-16))
0.00753705    	((2.153817e+02 1.344013e-15 3.649759e+02) (2.626150e+01 -9.799217e-18 -3.578896e+00)) ((-1.087352e-13 -3.101311e+02 3.344649e-15) (4.809752e-16 2.831990e+01 3.316035e-16))
0.00758536    	((1.511804e+02 1.043630e-14 1.842475e+03) (2.600950e+01 -1.156261e-17 -3.653298e+00)) ((-3.958992e-14 -7.293222e+02 5.997157e-15) (4.950233e-16 2.810624e+01 3.615574e-16))
0.00763256    	((1.400506e+02 1.185596e-14 2.043095e+03) (2.620659e+01 -1.323713e-17 -3.744377e+00)) ((-2.969823e-14 -7.873147e+02 6.425208e-15) (5.057156e-16 2.836238e+01 3.440762e-16))
0.00767888    	((1.399447e+02 1.196707e-14 2.033501e+03) (2.599093e+01 -1.544583e-17 -3.802364e+00)) ((-2.940076e-14 -7.803335e+02 6.473221e-15) (5.182217e-16 2.818344e+01 3.663084e-16))
0.00772451    	((1.385002e+02 1.194256e-14 2.052536e+03) (2.608515e+01 -1.796978e-17 -3.861640e+00)) ((-2.895059e-14 -7.912346e+02 6.421566e-15) (5.290544e-16 2.832291e+01 3.490770e-16))
0.00776899    	((1.377083e+02 1.195203e-14 2.066399e+03) (2.594537e+01 -2.056937e-17 -3.905831e+00)) ((-2.864408e-14 -7.977092e+02 6.398732e-15) (5.406259e-16 2.821801e+01 3.615851e-16))
0.00781236    	((1.369797e+02 1.183951e-14 2.086054e+03) (2.593018e+01 -2.329494e-17 -3.943062e+00)) ((-2.839871e-14 -8.107783e+02 6.311745e-15) (5.509826e-16 2.823588e+01 3.530193e-16))
0.00786191    	((1.355956e+02 1.234800e-14 2.037863e+03) (2.581761e+01 -2.616722e-17 -3.973966e+00)) ((-2.788802e-14 -7.821299e+02 6.588770e-15) (5.623685e-16 2.815526e+01 3.531306e-16))
0.00791733    	((1.345420e+02 1.256783e-14 2.009142e+03) (2.580412e+01 -2.730736e-17 -4.000416e+00)) ((-2.759841e-14 -7.686902e+02 6.702201e-15) (5.712963e-16 2.817781e+01 3.423868e-16))
0.00797866    	((1.343070e+02 1.255601e-14 2.002577e+03) (2.561660e+01 -2.783790e-17 -4.006545e+00)) ((-2.733143e-14 -7.687436e+02 6.683112e-15) (5.799979e-16 2.801374e+01 3.438668e-16))
0.00801969    	((1.333361e+02 1.171360e-14 2.119194e+03) (2.556060e+01 -2.883699e-17 -4.011224e+00)) ((-2.747586e-14 -8.384653e+02 6.160542e-15) (5.858796e-16 2.797589e+01 3.333985e-16))
0.00806058    	((1.337171e+02 1.230861e-14 2.069379e+03) (2.542857e+01 -2.971920e-17 -4.012533e+00)) ((-2.742707e-14 -8.017844e+02 6.499601e-15) (5.912806e-16 2.785882e+01 3.310385e-16))
0.00810147    	((1.340600e+02 1.247790e-14 2.047283e+03) (2.527829e+01 -3.053765e-17 -4.007119e+00)) ((-2.744110e-14 -7.892733e+02 6.596343e-15) (5.971896e-16 2.771976e+01 3.303488e-16))
0.0081425     	((1.348028e+02 1.248068e-14 2.035387e+03) (2.520236e+01 -3.116735e-17 -4.013687e+00)) ((-2.746271e-14 -7.852387e+02 6.600168e-15) (6.022354e-16 2.766189e+01 3.257986e-16))
0.00818367    	((1.332045e+02 1.254687e-14 2.044262e+03) (2.512248e+01 -3.185140e-17 -4.041481e+00)) ((-2.713753e-14 -7.878644e+02 6.623938e-15) (6.080236e-16 2.760648e+01 3.221386e-16))
0.00822513    	((1.323609e+02 1.253250e-14 2.036713e+03) (2.505802e+01 -3.250372e-17 -4.086338e+00)) ((-2.696554e-14 -7.849959e+02 6.629001e-15) (6.147395e-16 2.757496e+01 3.144602e-16))
0.00826689    	((1.322404e+02 1.249345e-14 2.033520e+03) (2.499252e+01 -3.307840e-17 -4.148325e+00)) ((-2.687364e-14 -7.834171e+02 6.622382e-15) (6.219918e-16 2.754797e+01 3.120714e-16))
0.00830909    	((1.320285e+02 1.242372e-14 2.029907e+03) (2.494601e+01 -3.348179e-17 -4.220661e+00)) ((-2.676611e-14 -7.836256e+02 6.592669e-15) (6.289573e-16 2.754439e+01 3.082345e-16))
0.00835176    	((1.313453e+02 1.236760e-14 2.038412e+03) (2.489733e+01 -3.376186e-17 -4.297059e+00)) ((-2.663552e-14 -7.887124e+02 6.556771e-15) (6.357152e-16 2.753987e+01 3.054670e-16))
0.0083949     	((1.311499e+02 1.242718e-14 2.027400e+03) (2.483793e+01 -3.400325e-17 -4.373664e+00)) ((-2.655277e-14 -7.829133e+02 6.598345e-15) (6.419942e-16 2.752387e+01 3.007929e-16))
0.00843853    	((1.319849e+02 1.227086e-14 2.030138e+03) (2.482974e+01 -3.428995e-17 -4.460126e+00)) ((-2.654479e-14 -7.872204e+02 6.522665e-15) (6.487385e-16 2.756377e+01 3.002442e-16))
0.00848283    	((1.320389e+02 1.214571e-14 2.033995e+03) (2.481241e+01 -3.447075e-17 -4.547795e+00)) ((-2.653229e-14 -7.917271e+02 6.456708e-15) (6.541649e-16 2.759210e+01 2.953203e-16))
0.00852799    	((1.301650e+02 1.240154e-14 2.024168e+03) (2.483122e+01 -3.475316e-17 -4.629067e+00)) ((-2.626192e-14 -7.827174e+02 6.584751e-15) (6.593794e-16 2.765888e+01 2.930479e-16))
0.00857388    	((1.299502e+02 1.249092e-14 2.009320e+03) (2.484155e+01 -3.506732e-17 -4.696498e+00)) ((-2.619825e-14 -7.744453e+02 6.641743e-15) (6.643788e-16 2.771610e+01 2.894260e-16))
0.00862071    	((1.329204e+02 1.197887e-14 2.022895e+03) (2.484346e+01 -3.543147e-17 -4.764571e+00)) ((-2.652906e-14 -7.898042e+02 6.388593e-15) (6.691248e-16 2.776426e+01 2.855022e-16))
0.00866852    	((1.299729e+02 1.230438e-14 2.016841e+03) (2.485738e+01 -3.613269e-17 -4.835338e+00)) ((-2.606693e-14 -7.821441e+02 6.546376e-15) (6.737488e-16 2.782589e+01 2.801173e-16))
0.00871736    	((1.295869e+02 1.245348e-14 1.999392e+03) (2.487129e+01 -3.689404e-17 -4.909854e+00)) ((-2.594403e-14 -7.718718e+02 6.634578e-15) (6.781470e-16 2.788889e+01 2.758174e-16))
0.00876751    	((1.293209e+02 1.250273e-14 1.992095e+03) (2.485643e+01 -3.751263e-17 -4.985608e+00)) ((-2.588310e-14 -7.680689e+02 6.650979e-15) (6.826190e-16 2.792094e+01 2.740484e-16))
0.00881903    	((1.289333e+02 1.262896e-14 1.979607e+03) (2.488842e+01 -3.830696e-17 -5.061269e+00)) ((-2.584172e-14 -7.629054e+02 6.697841e-15) (6.864986e-16 2.800524e+01 2.694611e-16))
0.00887177    	((1.292351e+02 1.301580e-14 1.953441e+03) (2.488425e+01 -3.956857e-17 -5.142237e+00)) ((-2.614066e-14 -7.550171e+02 6.821214e-15) (6.911710e-16 2.805321e+01 2.656151e-16))
0.00892632    	((1.890671e+02 2.416799e-14 3.858617e+02) (2.505853e+01 -4.122416e-17 -5.219520e+00)) ((-6.398626e-14 -3.030950e+02 1.037101e-14) (6.952282e-16 2.828830e+01 2.754660e-16))
0.0089843     	((1.307026e+02 1.307050e-14 1.953499e+03) (2.507640e+01 -4.427857e-17 -5.303887e+00)) ((-2.556638e-14 -7.562748e+02 6.835372e-15) (7.004468e-16 2.835913e+01 2.686398e-16))
0.00904417    	((1.311264e+02 1.282056e-14 1.898491e+03) (2.513851e+01 -4.729476e-17 -5.376443e+00)) ((-2.765034e-14 -7.406973e+02 6.757401e-15) (7.051317e-16 2.847567e+01 2.678687e-16))
0.00910437    	((1.289053e+02 1.282183e-14 1.938856e+03) (2.514827e+01 -5.046790e-17 -5.432840e+00)) ((-2.614393e-14 -7.533506e+02 6.741449e-15) (7.083407e-16 2.853350e+01 2.588036e-16))
0.0091649     	((1.283937e+02 1.277419e-14 1.944161e+03) (2.513375e+01 -5.372969e-17 -5.482785e+00)) ((-2.592091e-14 -7.563055e+02 6.712655e-15) (7.109509e-16 2.856331e+01 2.521863e-16))
0.00922543    	((1.287998e+02 1.274441e-14 1.940843e+03) (2.510241e+01 -5.712631e-17 -5.518621e+00)) ((-2.587094e-14 -7.560068e+02 6.705907e-15) (7.128020e-16 2.857199e+01 2.468350e-16))
0.0092863     	((1.279340e+02 1.280625e-14 1.940793e+03) (2.503178e+01 -6.059029e-17 -5.546413e+00)) ((-2.566365e-14 -7.547419e+02 6.731370e-15) (7.139447e-16 2.853647e+01 2.404912e-16))
0.00934752    	((1.273002e+02 1.276699e-14 1.947581e+03) (2.496145e+01 -6.195564e-17 -5.562664e+00)) ((-2.548398e-14 -7.590926e+02 6.699837e-15) (7.114022e-16 2.849807e+01 2.295977e-16))
0.00938834    	((1.257683e+02 1.249136e-14 2.012650e+03) (2.486187e+01 -6.354395e-17 -5.564628e+00)) ((-2.545124e-14 -7.932199e+02 6.502853e-15) (7.099531e-16 2.841618e+01 2.243963e-16))
0.00942899    	((1.272335e+02 1.277728e-14 1.974711e+03) (2.477839e+01 -6.470503e-17 -5.565426e+00)) ((-2.554430e-14 -7.682336e+02 6.679871e-15) (7.076331e-16 2.835076e+01 2.226450e-16))
0.0094695     	((1.289636e+02 1.251471e-14 1.982206e+03) (2.467667e+01 -6.568208e-17 -5.558869e+00)) ((-2.579542e-14 -7.774541e+02 6.536453e-15) (7.048592e-16 2.826369e+01 2.145342e-16))
0.00950984    	((1.281544e+02 1.278058e-14 1.959701e+03) (2.460552e+01 -6.690166e-17 -5.559698e+00)) ((-2.568290e-14 -7.632196e+02 6.679386e-15) (7.026465e-16 2.821233e+01 2.083577e-16))
0.00955003    	((1.285022e+02 1.276220e-14 1.959082e+03) (2.452779e+01 -6.904316e-17 -5.568050e+00)) ((-2.560934e-14 -7.631309e+02 6.670543e-15) (7.018845e-16 2.815832e+01 2.007129e-16))
0.00959038    	((1.268348e+02 1.273765e-14 1.972132e+03) (2.445232e+01 -7.136666e-17 -5.591350e+00)) ((-2.533540e-14 -7.712319e+02 6.634921e-15) (7.016835e-16 2.811222e+01 1.929013e-16))
0.00963073    	((1.265697e+02 1.277959e-14 1.963554e+03) (2.440187e+01 -7.363449e-17 -5.639322e+00)) ((-2.530113e-14 -7.651411e+02 6.676825e-15) (7.034869e-16 2.810301e+01 1.857017e-16))
0.00967123    	((1.269357e+02 1.274359e-14 1.953577e+03) (2.435713e+01 -7.593956e-17 -5.710926e+00)) ((-2.536124e-14 -7.604120e+02 6.678942e-15) (7.067964e-16 2.810903e+01 1.818892e-16))
0.0097119     	((1.266201e+02 1.273910e-14 1.951606e+03) (2.431909e+01 -7.824904e-17 -5.798709e+00)) ((-2.531292e-14 -7.586946e+02 6.687562e-15) (7.107798e-16 2.812831e+01 1.758043e-16))
0.00975272    	((1.264526e+02 1.274537e-14 1.946308e+03) (2.430743e+01 -8.021225e-17 -5.899662e+00)) ((-2.532643e-14 -7.565314e+02 6.695887e-15) (7.147359e-16 2.817889e+01 1.734448e-16))
0.00979371    	((1.267405e+02 1.267520e-14 1.940942e+03) (2.429525e+01 -8.186286e-17 -6.006307e+00)) ((-2.532620e-14 -7.555835e+02 6.670159e-15) (7.183386e-16 2.822982e+01 1.694955e-16))
0.00983487    	((1.275273e+02 1.239247e-14 1.959785e+03) (2.430343e+01 -8.331109e-17 -6.109666e+00)) ((-2.544533e-14 -7.697330e+02 6.515392e-15) (7.223696e-16 2.830241e+01 1.660676e-16))
0.00987619    	((1.255256e+02 1.263651e-14 1.954189e+03) (2.429982e+01 -8.482137e-17 -6.214376e+00)) ((-2.509615e-14 -7.621648e+02 6.642229e-15) (7.263342e-16 2.836230e+01 1.630458e-16))
0.00991768    	((1.254614e+02 1.271277e-14 1.943783e+03) (2.430817e+01 -8.641340e-17 -6.321205e+00)) ((-2.505784e-14 -7.558164e+02 6.692468e-15) (7.302996e-16 2.843528e+01 1.611842e-16))
0.00995952    	((1.257754e+02 1.272719e-14 1.932728e+03) (2.431934e+01 -8.807987e-17 -6.429232e+00)) ((-2.514854e-14 -7.513914e+02 6.708592e-15) (7.341136e-16 2.851148e+01 1.581442e-16))
0.0100015     	((1.257962e+02 1.270523e-14 1.932924e+03) (2.433793e+01 -8.977674e-17 -6.538330e+00)) ((-2.508356e-14 -7.513993e+02 6.703710e-15) (7.378800e-16 2.859589e+01 1.561288e-16))
0.0100439     	((1.255460e+02 1.272118e-14 1.930226e+03) (2.433416e+01 -9.149244e-17 -6.646091e+00)) ((-2.500559e-14 -7.497160e+02 6.717671e-15) (7.414343e-16 2.865610e+01 1.533349e-16))