# Forces      
# CofR        : (0.000000e+00 0.000000e+00 -1.000000e+00)
# Time        forces(pressure viscous)	moments(pressure viscous)
0             	((5.684342e-14 4.864098e-14 -1.136868e-13) (1.894515e+01 -1.282000e-17 3.480241e+00)) ((-4.335934e-14 0.000000e+00 2.608116e-14) (-1.674771e-17 1.728800e+01 1.170890e-16))
1.19976e-05   	((1.751789e+05 -6.492377e-12 1.742963e+06) (1.921494e+01 -1.230689e-17 2.991193e+00)) ((-1.666027e-11 -4.875538e+05 -3.269630e-12) (-4.014338e-18 1.772486e+01 1.196073e-16))
2.63878e-05   	((2.047955e+04 -1.216239e-12 2.918325e+05) (1.921475e+01 -1.195902e-17 2.808844e+00)) ((-1.981865e-12 -1.001198e+05 -7.064013e-13) (-9.800463e-19 1.779341e+01 1.194561e-16))
4.36511e-05   	((1.220911e+04 -6.691118e-13 1.642720e+05) (1.922860e+01 -1.130176e-17 2.682703e+00)) ((-1.166155e-12 -5.578094e+04 -3.898742e-13) (4.559295e-19 1.786579e+01 1.197289e-16))
6.43527e-05   	((8.192960e+03 -4.566319e-13 1.134271e+05) (1.924602e+01 -1.032621e-17 2.559996e+00)) ((-8.489863e-13 -3.856842e+04 -2.656308e-13) (1.358609e-18 1.794747e+01 1.204391e-16))
8.91792e-05   	((6.167481e+03 -3.197368e-13 8.068293e+04) (1.926526e+01 -9.009345e-18 2.419089e+00)) ((-6.190940e-13 -2.723649e+04 -1.867507e-13) (1.758936e-18 1.804361e+01 1.214574e-16))
0.000118941   	((4.554687e+03 -2.193872e-13 5.790360e+04) (1.928072e+01 -7.447314e-18 2.265029e+00)) ((-4.627644e-13 -1.941156e+04 -1.290099e-13) (2.280812e-18 1.814965e+01 1.226064e-16))
0.000154634   	((3.674829e+03 -1.522968e-13 4.269915e+04) (1.929311e+01 -5.496276e-18 2.098108e+00)) ((-3.574276e-13 -1.410916e+04 -9.132368e-14) (2.950087e-18 1.826542e+01 1.239365e-16))
0.000197405   	((2.860759e+03 -1.164917e-13 3.320479e+04) (1.929791e+01 -3.608526e-18 1.906865e+00)) ((-2.815919e-13 -1.084031e+04 -6.823392e-14) (3.789743e-18 1.838433e+01 1.257130e-16))
0.000248707   	((2.352624e+03 -8.225916e-14 2.541459e+04) (1.929443e+01 -9.460512e-19 1.750881e+00)) ((-2.243562e-13 -8.186833e+03 -4.864280e-14) (3.297094e-18 1.846735e+01 1.291101e-16))
0.000310237   	((1.056211e+03 -1.291229e-13 3.015339e+04) (1.927368e+01 -2.581667e-18 1.564766e+00)) ((-1.125598e-13 -1.474657e+04 -8.567427e-14) (8.079189e-18 1.857200e+01 1.312486e-16))
0.000383982   	((1.826330e+03 -3.746275e-14 1.577867e+04) (1.929661e+01 -3.083438e-18 1.417818e+00)) ((-1.769341e-13 -4.291173e+03 -2.127601e-14) (1.045239e-17 1.868296e+01 1.327313e-16))
0.000458004   	((1.684616e+03 -2.756757e-14 1.394381e+04) (1.933166e+01 -2.707005e-18 1.323285e+00)) ((-1.666644e-13 -3.954736e+03 -1.891252e-14) (1.231932e-17 1.878001e+01 1.353057e-16))
0.00053434    	((1.690895e+03 -3.231063e-14 1.397073e+04) (1.936243e+01 -2.180621e-18 1.243796e+00)) ((-1.531274e-13 -3.960234e+03 -1.914634e-14) (1.324961e-17 1.886098e+01 1.377338e-16))
0.000613469   	((1.403354e+03 -1.883879e-14 1.159396e+04) (1.938047e+01 -1.625879e-18 1.192018e+00)) ((-1.357647e-13 -3.382536e+03 -1.393479e-14) (1.386065e-17 1.891958e+01 1.398356e-16))
0.000708037   	((1.420904e+03 -1.993757e-14 1.106216e+04) (1.939290e+01 -1.246035e-18 1.157717e+00)) ((-1.268479e-13 -3.067073e+03 -1.267994e-14) (1.441351e-17 1.896988e+01 1.422101e-16))
0.000814037   	((1.016940e+03 -1.359806e-14 9.254470e+03) (1.939739e+01 -6.489650e-19 1.146188e+00)) ((-1.036444e-13 -2.737608e+03 -8.517103e-15) (1.399871e-17 1.900752e+01 1.446360e-16))
0.000935467   	((9.565714e+02 -1.446198e-14 8.960997e+03) (1.941703e+01 -4.067336e-19 1.157610e+00)) ((-9.346822e-14 -3.091509e+03 -1.112485e-14) (1.464387e-17 1.906212e+01 1.463531e-16))
0.00107362    	((8.958489e+02 -8.640086e-15 7.698120e+03) (1.946405e+01 2.412853e-20 1.188364e+00)) ((-8.635629e-14 -2.335242e+03 -6.086004e-15) (1.605502e-17 1.913591e+01 1.472577e-16))
0.00123401    	((7.442604e+02 -1.844955e-14 7.785722e+03) (1.954268e+01 5.395361e-19 1.234666e+00)) ((-6.484140e-14 -2.906449e+03 -1.141686e-14) (1.774104e-17 1.923448e+01 1.491016e-16))
0.00134774    	((8.609631e+02 -1.861889e-14 8.525135e+03) (1.960100e+01 9.195631e-19 1.264949e+00)) ((-7.226009e-14 -3.168575e+03 -1.291370e-14) (1.928709e-17 1.930779e+01 1.491820e-16))
0.00143829    	((9.281551e+02 -1.202427e-14 7.744758e+03) (1.964604e+01 1.121565e-18 1.282417e+00)) ((-8.134819e-14 -2.518557e+03 -8.454051e-15) (2.056578e-17 1.936683e+01 1.485906e-16))
0.00154684    	((1.057780e+03 -1.664299e-14 6.378538e+03) (1.971814e+01 1.367522e-18 1.307573e+00)) ((-6.878599e-14 -1.890295e+03 -6.846032e-15) (2.117881e-17 1.945503e+01 1.476826e-16))
0.00166986    	((9.196013e+02 -9.986621e-15 6.837260e+03) (1.979111e+01 1.558840e-18 1.327209e+00)) ((-7.336526e-14 -2.191169e+03 -6.647584e-15) (2.159230e-17 1.954532e+01 1.482116e-16))
0.0018165     	((1.063058e+03 -9.470391e-15 6.591713e+03) (1.990387e+01 1.729160e-18 1.339852e+00)) ((-7.552546e-14 -1.969177e+03 -6.455182e-15) (2.123915e-17 1.967839e+01 1.434183e-16))
0.00198967    	((2.003166e+03 -2.757353e-14 7.710516e+03) (2.006928e+01 1.960852e-18 1.359235e+00)) ((-1.048931e-13 -2.050121e+03 -1.705995e-14) (2.285083e-17 1.986288e+01 1.339371e-16))
0.00218127    	((3.394704e+03 -4.301153e-14 1.000429e+04) (2.042663e+01 2.637252e-18 1.313156e+00)) ((-1.412161e-13 -2.141263e+03 -2.772990e-14) (2.171690e-17 2.025441e+01 1.192545e-16))
0.0023934     	((1.726850e+02 -3.008182e-15 5.363395e+03) (2.069011e+01 2.023341e-18 1.355922e+00)) ((-5.681589e-14 -2.308926e+03 -4.317544e-15) (2.459087e-17 2.054324e+01 1.129570e-16))
0.00254261    	((1.056708e+02 -1.176678e-14 6.602840e+03) (2.095281e+01 1.967520e-18 1.432608e+00)) ((-3.610891e-14 -3.036154e+03 -8.701569e-15) (2.576077e-17 2.082024e+01 1.105034e-16))
0.00271545    	((8.438015e+01 -1.074543e-14 6.214344e+03) (2.118434e+01 1.645569e-18 1.443484e+00)) ((-3.188723e-14 -2.955897e+03 -8.450776e-15) (2.564229e-17 2.106211e+01 1.057632e-16))
0.00288491    	((-2.714955e+02 -5.541704e-14 1.195605e+04) (2.143619e+01 2.391005e-18 1.496482e+00)) ((9.103296e-15 -6.952294e+03 -3.867266e-14) (2.644113e-17 2.130648e+01 1.149419e-16))
0.00304791    	((-1.602776e+02 -3.731855e-14 9.396314e+03) (2.191734e+01 3.894326e-18 1.612593e+00)) ((-6.261948e-15 -5.443262e+03 -2.724829e-14) (3.393911e-17 2.172108e+01 1.265918e-16))
0.00320634    	((1.706402e+02 4.051336e-15 3.725345e+03) (2.233961e+01 3.805198e-18 1.625271e+00)) ((-4.837201e-14 -1.616246e+03 4.773807e-16) (3.514784e-17 2.212679e+01 1.469627e-16))
0.00330122    	((1.719519e+02 1.227857e-15 4.448428e+03) (2.259206e+01 4.950969e-18 1.624701e+00)) ((-4.026176e-14 -1.828097e+03 2.511611e-18) (3.538210e-17 2.235779e+01 1.488207e-16))
0.00337889    	((1.696283e+02 1.405244e-15 4.443996e+03) (2.297436e+01 5.234115e-18 1.642586e+00)) ((-4.012335e-14 -1.815074e+03 9.884243e-17) (3.515979e-17 2.271361e+01 1.468318e-16))
0.00344673    	((1.921945e+02 1.554171e-15 4.510273e+03) (2.400579e+01 5.228745e-18 1.736782e+00)) ((-4.181588e-14 -1.795039e+03 2.229673e-16) (3.666038e-17 2.364798e+01 1.573898e-16))
0.00350737    	((9.282708e+01 -1.249333e-14 6.032209e+03) (2.519450e+01 5.108092e-18 1.856095e+00)) ((-3.325473e-14 -2.924342e+03 -9.055175e-15) (3.759364e-17 2.471608e+01 1.642721e-16))
0.00356424    	((1.900756e+02 -4.315741e-15 3.821685e+03) (2.626105e+01 5.156235e-18 1.959281e+00)) ((-5.426935e-14 -1.717347e+03 -2.751604e-15) (3.827006e-17 2.567977e+01 1.623648e-16))
0.00361726    	((8.792006e+01 -8.862351e-15 5.635965e+03) (2.695057e+01 5.112870e-18 2.045554e+00)) ((-2.916933e-14 -2.720947e+03 -6.845512e-15) (3.945773e-17 2.627746e+01 1.736975e-16))
0.00366705    	((1.536965e+02 7.539026e-16 4.291097e+03) (2.777768e+01 4.320186e-18 2.032461e+00)) ((-3.673014e-14 -1.826812e+03 -2.739140e-16) (4.078254e-17 2.705986e+01 1.678198e-16))
0.00371453    	((1.623843e+02 3.022149e-15 3.965290e+03) (2.836969e+01 2.695304e-18 1.659217e+00)) ((-3.788506e-14 -1.615168e+03 1.305088e-15) (4.376500e-17 2.771323e+01 1.779912e-16))
0.00376724    	((1.631237e+02 5.488233e-15 3.541533e+03) (2.895873e+01 6.562791e-19 1.518311e+00)) ((-3.735690e-14 -1.393622e+03 2.837414e-15) (4.456346e-17 2.830383e+01 1.793673e-16))
0.00382605    	((1.713803e+02 6.964611e-15 3.307313e+03) (2.950488e+01 -1.268749e-18 1.386004e+00)) ((-3.743872e-14 -1.258813e+03 3.741907e-15) (4.393459e-17 2.885450e+01 1.834753e-16))
0.00389127    	((1.713233e+02 7.926635e-15 3.150755e+03) (3.002315e+01 -2.853178e-18 1.200561e+00)) ((-3.678166e-14 -1.178347e+03 4.320699e-15) (4.208632e-17 2.939403e+01 1.857009e-16))
0.00395596    	((1.902453e+02 8.002328e-15 3.217968e+03) (3.047226e+01 -4.526708e-18 1.011187e+00)) ((-3.816961e-14 -1.164917e+03 4.457477e-15) (4.135977e-17 2.987701e+01 1.894404e-16))
0.00402014    	((1.962946e+02 6.316864e-15 3.101760e+03) (3.091428e+01 -6.258663e-18 8.164613e-01)) ((-4.006304e-14 -1.125344e+03 3.961770e-15) (4.095499e-17 3.036334e+01 1.907811e-16))
0.00408457    	((1.959647e+02 -3.698508e-15 2.372054e+03) (3.136976e+01 -7.575528e-18 6.380140e-01)) ((-5.031944e-14 -9.414447e+02 7.377167e-16) (4.247813e-17 3.086639e+01 2.020284e-16))
0.00414061    	((1.917117e+02 6.891150e-15 3.138693e+03) (3.202574e+01 -9.253402e-18 4.305490e-01)) ((-3.813702e-14 -1.149991e+03 4.077047e-15) (4.151967e-17 3.158834e+01 1.785001e-16))
0.00419177    	((2.313963e+02 6.085498e-15 3.419199e+03) (3.230626e+01 -9.662923e-18 2.138307e-01)) ((-4.081701e-14 -1.201242e+03 3.783793e-15) (4.066305e-17 3.193533e+01 1.855147e-16))
0.00423924    	((3.534287e+02 2.710358e-15 4.256436e+03) (3.253029e+01 -8.703357e-18 8.587895e-03)) ((-4.978496e-14 -1.390520e+03 2.042753e-15) (3.909903e-17 3.222319e+01 1.952453e-16))
0.00428546    	((1.936000e+02 7.405317e-15 3.082935e+03) (3.271042e+01 -7.456298e-18 -1.937682e-01)) ((-3.797036e-14 -1.112878e+03 4.405303e-15) (3.922879e-17 3.246574e+01 2.046535e-16))
0.00433196    	((2.222217e+02 7.097512e-15 3.211301e+03) (3.282371e+01 -7.996771e-18 -3.720282e-01)) ((-3.940168e-14 -1.125482e+03 4.224905e-15) (4.333191e-17 3.263307e+01 2.135852e-16))
0.00437859    	((3.595702e+02 3.106958e-15 4.238991e+03) (3.288424e+01 -7.389907e-18 -5.400373e-01)) ((-4.916477e-14 -1.377517e+03 1.942239e-15) (4.879666e-17 3.274226e+01 2.222573e-16))
0.0044255     	((3.884443e+02 4.114024e-15 3.724182e+03) (3.289396e+01 -6.035516e-18 -6.933627e-01)) ((-4.483750e-14 -1.181712e+03 2.509173e-15) (5.513069e-17 3.279539e+01 2.314529e-16))
0.00447342    	((6.502972e+02 -8.405219e-15 7.002122e+03) (3.320874e+01 -5.230077e-18 -8.591783e-01)) ((-7.096565e-14 -2.178825e+03 -4.233918e-15) (6.403637e-17 3.316711e+01 2.086010e-16))
0.00452303    	((3.478596e+02 3.091887e-15 4.025268e+03) (3.319363e+01 -4.260780e-18 -1.035762e+00)) ((-4.648820e-14 -1.330947e+03 1.989041e-15) (7.548204e-17 3.320725e+01 2.181249e-16))
0.00457479    	((2.589304e+02 6.483938e-15 3.243763e+03) (3.315832e+01 -3.671803e-18 -1.215604e+00)) ((-3.980542e-14 -1.117048e+03 3.879490e-15) (8.856337e-17 3.322641e+01 2.268406e-16))
0.00462891    	((3.101061e+02 6.881081e-15 3.126652e+03) (3.309733e+01 -4.170427e-18 -1.385131e+00)) ((-4.060132e-14 -1.036846e+03 3.599536e-15) (1.033238e-16 3.321801e+01 2.341967e-16))
0.00468605    	((1.835188e+02 8.846278e-15 2.847424e+03) (3.297208e+01 -5.640196e-18 -1.561850e+00)) ((-3.598408e-14 -1.018562e+03 5.180432e-15) (1.183993e-16 3.314411e+01 2.444288e-16))
0.00473177    	((1.893370e+02 8.409081e-15 2.933471e+03) (3.322182e+01 -7.088022e-18 -1.740409e+00)) ((-3.663059e-14 -1.047657e+03 4.974603e-15) (1.275123e-16 3.345878e+01 2.144124e-16))
0.00477721    	((1.853465e+02 8.593042e-15 2.887352e+03) (3.311437e+01 -8.037357e-18 -1.906750e+00)) ((-3.619668e-14 -1.036746e+03 5.042666e-15) (1.355683e-16 3.340314e+01 2.205130e-16))
0.00482224    	((1.933320e+02 8.187576e-15 2.846201e+03) (3.298077e+01 -9.286151e-18 -2.061948e+00)) ((-3.510260e-14 -1.020869e+03 5.087509e-15) (1.427705e-16 3.331637e+01 2.255778e-16))
0.00487405    	((1.799820e+02 9.398390e-15 2.674493e+03) (3.281189e+01 -1.125803e-17 -2.242633e+00)) ((-3.431855e-14 -9.517082e+02 5.536847e-15) (1.501197e-16 3.319839e+01 2.302247e-16))
0.00493245    	((1.795624e+02 9.494754e-15 2.594241e+03) (3.339792e+01 -1.361480e-17 -2.499709e+00)) ((-3.410650e-14 -9.196597e+02 5.659158e-15) (1.521221e-16 3.388823e+01 1.566408e-16))
0.00499739    	((2.057077e+02 -7.826906e-15 1.806960e+03) (3.338305e+01 -1.489250e-17 -2.690046e+00)) ((-3.099934e-14 -7.011451e+02 7.231849e-16) (1.529904e-16 3.394899e+01 1.518342e-16))
0.00504075    	((1.851415e+02 7.170433e-15 2.615439e+03) (3.330536e+01 -1.522542e-17 -2.828399e+00)) ((-3.470287e-14 -9.447718e+02 4.845254e-15) (1.509612e-16 3.392171e+01 1.509774e-16))
0.00508437    	((2.012534e+02 7.935879e-15 2.578292e+03) (3.317943e+01 -1.548074e-17 -2.949215e+00)) ((-3.593145e-14 -9.132861e+02 4.652906e-15) (1.481657e-16 3.383812e+01 1.526283e-16))
0.00512824    	((1.924843e+02 8.630720e-15 2.553819e+03) (3.303384e+01 -1.532096e-17 -3.056982e+00)) ((-3.528901e-14 -9.015103e+02 5.233972e-15) (1.445191e-16 3.372941e+01 1.565902e-16))
0.0051725     	((1.816316e+02 9.164151e-15 2.540640e+03) (3.285018e+01 -1.421829e-17 -3.137399e+00)) ((-3.419970e-14 -9.008037e+02 5.605051e-15) (1.399029e-16 3.357292e+01 1.645743e-16))
0.00521729    	((1.788479e+02 9.372255e-15 2.509534e+03) (3.264892e+01 -1.266313e-17 -3.204161e+00)) ((-3.408207e-14 -8.903555e+02 5.699272e-15) (1.337883e-16 3.339485e+01 1.757686e-16))
0.00526292    	((1.784830e+02 9.467499e-15 2.485609e+03) (3.267413e+01 -1.143119e-17 -3.268447e+00)) ((-3.416722e-14 -8.825877e+02 5.727014e-15) (1.249525e-16 3.345310e+01 1.671301e-16))
0.00530985    	((1.730450e+02 1.003485e-14 2.431071e+03) (3.248239e+01 -9.970201e-18 -3.344616e+00)) ((-3.299743e-14 -8.636282e+02 6.024293e-15) (1.101302e-16 3.329109e+01 1.773252e-16))
0.00535882    	((1.768752e+02 1.010412e-14 2.408688e+03) (3.229043e+01 -9.079712e-18 -3.455890e+00)) ((-3.294730e-14 -8.491276e+02 6.063208e-15) (9.203395e-17 3.313576e+01 1.885266e-16))
0.00541019    	((1.951579e+02 1.003185e-14 2.371420e+03) (3.236810e+01 -9.173859e-18 -3.621261e+00)) ((-3.243628e-14 -8.296833e+02 6.081481e-15) (7.009646e-17 3.328119e+01 1.736324e-16))
0.00546443    	((1.675566e+02 1.054647e-14 2.352421e+03) (3.226498e+01 -1.132582e-17 -3.782780e+00)) ((-3.187246e-14 -8.305381e+02 6.279913e-15) (5.119669e-17 3.324224e+01 1.757544e-16))
0.00552211    	((1.673095e+02 1.038144e-14 2.322396e+03) (3.214497e+01 -1.348178e-17 -3.964631e+00)) ((-3.144300e-14 -8.212140e+02 6.277874e-15) (3.332751e-17 3.319144e+01 1.789005e-16))
0.00558269    	((1.621805e+02 8.476540e-15 2.347151e+03) (3.240003e+01 -1.607258e-17 -4.177034e+00)) ((-2.969548e-14 -8.682999e+02 5.610690e-15) (1.570375e-17 3.353798e+01 1.493653e-16))
0.00564648    	((1.710477e+02 5.532618e-15 2.198717e+03) (3.219658e+01 -1.470352e-17 -4.423441e+00)) ((-2.865231e-14 -8.199510e+02 5.058598e-15) (-4.904150e-18 3.343661e+01 1.686987e-16))
0.00571324    	((1.750176e+02 6.065974e-15 2.191308e+03) (3.199166e+01 -1.523698e-17 -4.663355e+00)) ((-2.829155e-14 -8.141698e+02 5.334126e-15) (-1.937817e-17 3.331809e+01 1.852628e-16))
0.00578127    	((1.649511e+02 8.576763e-15 2.271896e+03) (3.200028e+01 -1.593785e-17 -4.900709e+00)) ((-2.999074e-14 -8.326986e+02 5.753453e-15) (-3.148110e-17 3.341702e+01 1.804912e-16))
0.00585063    	((1.756681e+02 6.144375e-15 1.957358e+03) (3.181883e+01 -1.726852e-17 -5.109176e+00)) ((-3.886957e-14 -7.270853e+02 5.009761e-15) (-4.042542e-17 3.331355e+01 1.995974e-16))
0.00589555    	((2.033109e+02 -1.915307e-15 1.622155e+03) (3.176154e+01 -1.872537e-17 -5.240205e+00)) ((-5.505968e-14 -6.577256e+02 2.005763e-15) (-4.540579e-17 3.330862e+01 2.269177e-16))
0.00594047    	((1.792105e+02 8.266054e-15 2.297774e+03) (3.189443e+01 -1.850958e-17 -5.371802e+00)) ((-3.270287e-14 -8.442282e+02 5.157602e-15) (-5.366582e-17 3.349701e+01 2.159731e-16))
0.00598553    	((1.938790e+02 7.763513e-15 2.275487e+03) (3.172501e+01 -1.761908e-17 -5.477200e+00)) ((-3.338365e-14 -8.325954e+02 4.787256e-15) (-6.236754e-17 3.336633e+01 2.264658e-16))
0.00603074    	((1.629723e+02 9.037894e-15 2.278807e+03) (3.154662e+01 -1.619598e-17 -5.557868e+00)) ((-3.019653e-14 -8.377807e+02 5.830808e-15) (-7.227799e-17 3.321807e+01 2.362913e-16))
0.0060761     	((1.758938e+02 8.177915e-15 2.258793e+03) (3.178792e+01 -1.507240e-17 -5.650564e+00)) ((-2.739398e-14 -8.331990e+02 6.240411e-15) (-8.631286e-17 3.351414e+01 1.977292e-16))
0.00612175    	((1.711545e+02 8.932472e-15 2.231590e+03) (3.156624e+01 -1.362164e-17 -5.701580e+00)) ((-3.107945e-14 -8.138481e+02 5.534572e-15) (-9.844299e-17 3.331316e+01 2.025452e-16))
0.00616786    	((1.973470e+02 8.995537e-15 2.192985e+03) (3.134979e+01 -1.168666e-17 -5.732310e+00)) ((-3.023636e-14 -7.874389e+02 5.825019e-15) (-1.106612e-16 3.311107e+01 2.098040e-16))
0.00621474    	((1.578033e+02 9.491029e-15 2.225675e+03) (3.108016e+01 -8.753398e-18 -5.756459e+00)) ((-2.905546e-14 -8.218364e+02 5.971575e-15) (-1.236454e-16 3.285649e+01 2.218897e-16))
0.00626311    	((1.728646e+02 9.061490e-15 2.178641e+03) (3.113595e+01 -5.909443e-18 -5.826497e+00)) ((-3.399086e-14 -7.993893e+02 4.769432e-15) (-1.337293e-16 3.294666e+01 1.995416e-16))
0.00631325    	((1.660052e+02 9.085218e-15 2.214435e+03) (3.090083e+01 -3.304776e-18 -5.895673e+00)) ((-2.900411e-14 -8.152458e+02 5.966329e-15) (-1.391860e-16 3.273508e+01 2.042949e-16))
0.00636549    	((1.626683e+02 9.625106e-15 2.168889e+03) (3.071848e+01 -1.903747e-18 -5.955566e+00)) ((-2.952245e-14 -7.940485e+02 5.982930e-15) (-1.410093e-16 3.257530e+01 2.046976e-16))
0.00642047    	((1.638484e+02 9.572313e-15 2.184785e+03) (3.095182e+01 -8.251603e-19 -6.042687e+00)) ((-2.866107e-14 -8.092278e+02 6.035324e-15) (-1.447110e-16 3.286650e+01 1.736443e-16))
0.00647875    	((2.169199e+02 7.670682e-15 2.072369e+03) (3.071822e+01 -1.273409e-19 -6.088550e+00)) ((-2.452771e-14 -7.491616e+02 6.502646e-15) (-1.447306e-16 3.265459e+01 1.847297e-16))
0.00653993    	((1.517252e+02 1.011398e-14 2.155235e+03) (3.041717e+01 6.265872e-19 -6.127335e+00)) ((-2.822168e-14 -7.973429e+02 6.213367e-15) (-1.435550e-16 3.236510e+01 1.988265e-16))
0.00660372    	((1.492797e+02 9.822665e-15 2.172292e+03) (3.061588e+01 3.403024e-19 -6.202615e+00)) ((-2.794778e-14 -8.143815e+02 6.067027e-15) (-1.438134e-16 3.260788e+01 1.552042e-16))
0.00666844    	((1.602382e+02 1.016538e-14 2.092743e+03) (3.037870e+01 2.133485e-18 -6.266435e+00)) ((-2.720067e-14 -7.749809e+02 6.380994e-15) (-1.435537e-16 3.240202e+01 1.643766e-16))
0.00673411    	((1.485065e+02 1.057499e-14 2.120312e+03) (3.005830e+01 2.475867e-18 -6.323859e+00)) ((-2.723455e-14 -7.857592e+02 6.389106e-15) (-1.423632e-16 3.210082e+01 1.736875e-16))
0.00680077    	((1.525954e+02 1.049689e-14 2.082659e+03) (2.983233e+01 2.491108e-18 -6.390064e+00)) ((-2.539392e-14 -7.692609e+02 6.809510e-15) (-1.409800e-16 3.190150e+01 1.874359e-16))
0.00686846    	((1.997920e+02 5.743661e-15 1.285329e+03) (3.030995e+01 1.310424e-18 -6.442295e+00)) ((-1.520597e-14 -5.570217e+02 5.225286e-15) (-1.427325e-16 3.243260e+01 1.363175e-16))
0.00693757    	((1.870758e+02 8.007811e-15 1.981383e+03) (3.006021e+01 2.426805e-18 -6.444357e+00)) ((-2.729588e-14 -7.399547e+02 5.615955e-15) (-1.438358e-16 3.219354e+01 1.352124e-16))
0.00698246    	((1.710366e+02 8.160128e-15 2.179830e+03) (2.986346e+01 2.906711e-18 -6.434477e+00)) ((-2.710268e-14 -8.337342e+02 5.436908e-15) (-1.439502e-16 3.199860e+01 1.380355e-16))
0.00702751    	((1.797964e+02 8.601986e-15 2.100559e+03) (2.963140e+01 3.571243e-18 -6.413007e+00)) ((-2.894970e-14 -7.912571e+02 5.304447e-15) (-1.437856e-16 3.175976e+01 1.402732e-16))
0.00707271    	((2.181036e+02 7.426461e-15 1.984001e+03) (2.941841e+01 4.891939e-18 -6.386066e+00)) ((-3.238888e-14 -7.442873e+02 4.563340e-15) (-1.436129e-16 3.154189e+01 1.437484e-16))
0.00711806    	((1.496948e+02 9.986793e-15 2.117931e+03) (2.939684e+01 5.500933e-18 -6.353319e+00)) ((-2.706894e-14 -7.899991e+02 6.167606e-15) (-1.429447e-16 3.152176e+01 1.268703e-16))
0.00716358    	((1.466462e+02 1.013297e-14 2.114098e+03) (2.915291e+01 6.857790e-18 -6.299162e+00)) ((-2.688945e-14 -7.895783e+02 6.223675e-15) (-1.424073e-16 3.126651e+01 1.262975e-16))
0.00720943    	((1.458772e+02 1.013456e-14 2.113096e+03) (2.908942e+01 7.346352e-18 -6.253492e+00)) ((-2.678599e-14 -7.910732e+02 6.210523e-15) (-1.403468e-16 3.120005e+01 1.110482e-16))
0.0072556     	((1.636953e+02 1.194989e-14 2.058800e+03) (2.886608e+01 8.537405e-18 -6.195553e+00)) ((-2.892346e-14 -7.811111e+02 6.323227e-15) (-1.365865e-16 3.096363e+01 1.157859e-16))
0.00730246    	((1.486545e+02 9.695463e-15 2.069322e+03) (2.897138e+01 8.616769e-18 -6.151051e+00)) ((-2.719063e-14 -7.844679e+02 5.998229e-15) (-1.312137e-16 3.107475e+01 8.081825e-17))
0.00735037    	((2.037272e+02 1.863284e-15 1.625289e+03) (2.875415e+01 1.010471e-17 -6.100962e+00)) ((-3.425448e-14 -6.639214e+02 3.273548e-15) (-1.202244e-16 3.085530e+01 8.429786e-17))
0.0073994     	((2.216267e+02 2.016283e-15 1.614810e+03) (2.853763e+01 1.017504e-17 -6.072802e+00)) ((-3.325780e-14 -6.492623e+02 3.569992e-15) (-1.049966e-16 3.064026e+01 8.926258e-17))
0.00744981    	((2.656078e+02 9.979007e-15 1.781939e+03) (2.865060e+01 9.364985e-18 -6.079462e+00)) ((-3.260175e-14 -6.979262e+02 5.297688e-15) (-8.903428e-17 3.078174e+01 6.201411e-17))
0.00750188    	((1.484288e+02 1.040550e-14 2.076254e+03) (2.846708e+01 9.699356e-18 -6.090045e+00)) ((-2.805839e-14 -7.840118e+02 6.130761e-15) (-6.853534e-17 3.061847e+01 7.004799e-17))
0.00755575    	((1.448001e+02 1.068018e-14 2.095925e+03) (2.827889e+01 8.243376e-18 -6.099483e+00)) ((-2.802526e-14 -7.903011e+02 6.210719e-15) (-4.343369e-17 3.045055e+01 7.236818e-17))
0.00761181    	((1.424886e+02 1.070384e-14 2.082873e+03) (2.851452e+01 5.856466e-18 -6.141521e+00)) ((-2.779103e-14 -7.926107e+02 6.192122e-15) (-1.714004e-17 3.074373e+01 4.092631e-17))
0.00767024    	((1.428180e+02 1.083448e-14 2.046228e+03) (2.832514e+01 4.058790e-18 -6.177803e+00)) ((-2.770434e-14 -7.746166e+02 6.309007e-15) (1.338550e-17 3.059276e+01 4.685743e-17))
0.00773128    	((1.718569e+02 1.219886e-14 1.890509e+03) (2.818314e+01 1.812731e-18 -6.243307e+00)) ((-1.841361e-14 -7.262894e+02 8.167563e-15) (4.423470e-17 3.050410e+01 5.574356e-17))
0.00779485    	((1.710407e+02 1.147354e-14 1.920854e+03) (2.831575e+01 -2.430514e-19 -6.367016e+00)) ((-2.801305e-14 -7.385907e+02 6.386098e-15) (7.448038e-17 3.072698e+01 3.396135e-17))
0.00786082    	((1.450252e+02 1.108997e-14 1.996594e+03) (2.820167e+01 -2.631983e-18 -6.475197e+00)) ((-2.752216e-14 -7.515351e+02 6.426875e-15) (1.099399e-16 3.068517e+01 4.233117e-17))
0.00792276    	((1.722283e+02 1.261817e-14 1.884548e+03) (2.834229e+01 -5.207616e-18 -6.612937e+00)) ((-2.496425e-14 -7.362195e+02 7.111229e-15) (1.433780e-16 3.092227e+01 2.636209e-17))
0.00798533    	((2.171180e+02 -5.895516e-16 9.279829e+02) (2.836742e+01 -7.857218e-18 -6.732549e+00)) ((-7.682656e-15 -4.510479e+02 3.430564e-15) (1.799087e-16 3.103732e+01 5.664218e-18))
0.00804857    	((1.986604e+02 1.077729e-14 1.813800e+03) (2.865636e+01 -1.138438e-17 -6.914023e+00)) ((-2.619924e-14 -7.157824e+02 6.375405e-15) (2.152790e-16 3.145133e+01 -2.438271e-17))
0.00811248    	((1.437097e+02 1.044648e-14 1.982719e+03) (2.859798e+01 -1.193412e-17 -7.101796e+00)) ((-2.780571e-14 -7.564950e+02 6.144951e-15) (2.496599e-16 3.150588e+01 -2.194083e-17))
0.00817744    	((1.440412e+02 1.067554e-14 1.971703e+03) (2.849927e+01 -1.465988e-17 -7.316519e+00)) ((-2.783052e-14 -7.528918e+02 6.219202e-15) (2.878499e-16 3.152843e+01 -1.111499e-17))
0.00824312    	((1.784791e+02 1.178011e-14 1.775223e+03) (2.868084e+01 -1.611349e-17 -7.572599e+00)) ((-3.281905e-14 -7.061024e+02 5.872819e-15) (3.236136e-16 3.186143e+01 -1.805376e-17))
0.00830992    	((1.950218e+02 1.153835e-14 1.736544e+03) (2.865766e+01 -1.684191e-17 -7.844577e+00)) ((-2.659005e-14 -6.837478e+02 6.789462e-15) (3.593386e-16 3.198071e+01 -9.203864e-18))
0.00837789    	((3.510833e+02 4.273071e-15 6.808523e+02) (2.890923e+01 -1.890058e-17 -8.073517e+00)) ((-3.710721e-14 -4.145800e+02 3.890904e-15) (3.937175e-16 3.239048e+01 -3.014589e-17))
0.00842208    	((2.069587e+02 8.458415e-15 1.783092e+03) (2.882896e+01 -1.886076e-17 -8.235149e+00)) ((-3.148232e-14 -7.359848e+02 5.128115e-15) (4.180159e-16 3.240297e+01 -1.781738e-17))
0.00846644    	((1.761608e+02 1.070414e-14 1.888091e+03) (2.878953e+01 -1.966264e-17 -8.417404e+00)) ((-2.985668e-14 -7.512722e+02 5.969382e-15) (4.434988e-16 3.246263e+01 -5.849146e-18))
0.0085108     	((5.382336e+02 6.742136e-15 1.076817e+02) (2.875240e+01 -2.054080e-17 -8.572823e+00)) ((-3.200984e-14 -2.513861e+02 5.323652e-15) (4.674122e-16 3.252090e+01 9.779743e-19))
0.0085555     	((2.973883e+02 8.422241e-15 1.226303e+03) (2.883121e+01 -2.162124e-17 -8.836631e+00)) ((-3.664194e-14 -5.641156e+02 4.895089e-15) (4.846139e-16 3.271941e+01 -1.140688e-18))
0.00860038    	((2.011538e+03 -3.656397e-15 -8.368419e+03) (2.880334e+01 -2.161076e-17 -8.958135e+00)) ((-1.845167e-13 2.100585e+03 -1.185007e-14) (5.069749e-16 3.278501e+01 -2.930675e-18))
0.0086458     	((1.652074e+02 1.103341e-14 2.408792e+03) (2.882204e+01 -2.226003e-17 -9.159089e+00)) ((-2.999378e-14 -8.989952e+02 5.659070e-15) (5.203555e-16 3.291716e+01 -9.911301e-19))
0.00869177    	((1.395265e+02 1.162528e-14 2.259528e+03) (2.882917e+01 -2.344571e-17 -9.381616e+00)) ((-2.837801e-14 -8.624241e+02 6.146969e-15) (5.290881e-16 3.304465e+01 -9.757321e-19))
0.0087383     	((1.469069e+02 1.162451e-14 2.257329e+03) (2.879695e+01 -2.527629e-17 -9.608556e+00)) ((-2.819303e-14 -8.531227e+02 6.138416e-15) (5.345004e-16 3.313075e+01 -4.852393e-18))
0.00878562    	((1.434218e+02 1.191006e-14 2.178308e+03) (2.881433e+01 -2.722350e-17 -9.841537e+00)) ((-2.778073e-14 -8.260176e+02 6.270110e-15) (5.382682e-16 3.327221e+01 -5.105422e-18))
0.00883375    	((1.578463e+02 1.178441e-14 2.161845e+03) (2.883957e+01 -2.904848e-17 -1.007293e+01)) ((-2.819910e-14 -8.158772e+02 6.035281e-15) (5.394034e-16 3.342038e+01 -1.480186e-17))
0.00888273    	((1.480577e+02 1.198848e-14 2.123816e+03) (2.884494e+01 -3.070986e-17 -1.029455e+01)) ((-2.781721e-14 -8.032933e+02 6.231957e-15) (5.398696e-16 3.354456e+01 -1.810150e-17))
0.0089328     	((1.473556e+02 1.181191e-14 2.125801e+03) (2.882378e+01 -3.225089e-17 -1.050158e+01)) ((-2.677595e-14 -8.091749e+02 6.222732e-15) (5.385937e-16 3.363561e+01 -2.610534e-17))
0.00898428    	((1.473020e+02 1.104312e-14 2.015250e+03) (2.885145e+01 -3.371641e-17 -1.070060e+01)) ((-2.639705e-14 -7.690037e+02 6.301381e-15) (5.362994e-16 3.377690e+01 -3.507170e-17))
0.0090375     	((1.440421e+02 1.214820e-14 2.019749e+03) (2.884929e+01 -3.611344e-17 -1.088126e+01)) ((-2.733416e-14 -7.674004e+02 6.487376e-15) (5.342809e-16 3.388079e+01 -3.942890e-17))
0.00909258    	((1.426524e+02 1.240437e-14 2.043411e+03) (2.882674e+01 -3.926900e-17 -1.104706e+01)) ((-2.688261e-14 -7.746459e+02 6.577229e-15) (5.316637e-16 3.395879e+01 -4.926694e-17))
0.00915029    	((1.387399e+02 1.256746e-14 2.008939e+03) (2.882908e+01 -4.268966e-17 -1.120733e+01)) ((-2.648471e-14 -7.638418e+02 6.726704e-15) (5.288932e-16 3.406319e+01 -5.698330e-17))
0.00921091    	((1.354816e+02 1.248527e-14 2.047287e+03) (2.880570e+01 -4.634301e-17 -1.136286e+01)) ((-2.605998e-14 -7.819347e+02 6.653108e-15) (5.262364e-16 3.414034e+01 -6.217707e-17))
0.00927437    	((1.349119e+02 1.270905e-14 2.008154e+03) (2.880083e+01 -4.970717e-17 -1.151779e+01)) ((-2.690636e-14 -7.626462e+02 6.785990e-15) (5.218507e-16 3.423819e+01 -7.311489e-17))
0.00933429    	((1.347409e+02 1.300530e-14 1.979198e+03) (2.875670e+01 -5.324546e-17 -1.166252e+01)) ((-2.845307e-14 -7.546899e+02 6.842730e-15) (5.178083e-16 3.428799e+01 -8.108565e-17))
0.00939524    	((1.644690e+02 5.409929e-15 7.366364e+02) (2.890082e+01 -5.691556e-17 -1.179354e+01)) ((-1.022240e-13 -3.900064e+02 4.924545e-15) (5.133375e-16 3.453366e+01 -8.492310e-17))
0.00945689    	((1.354460e+02 1.240862e-14 1.942813e+03) (2.887549e+01 -6.068360e-17 -1.191655e+01)) ((-3.006320e-14 -7.450303e+02 6.648052e-15) (5.102142e-16 3.459754e+01 -8.968495e-17))
0.00951965    	((1.420088e+02 1.294555e-14 1.886916e+03) (2.887540e+01 -6.433106e-17 -1.203866e+01)) ((-3.213080e-14 -7.291861e+02 6.526577e-15) (5.073472e-16 3.468969e+01 -9.622301e-17))
0.00958356    	((1.338474e+02 1.280205e-14 1.951268e+03) (2.880993e+01 -6.933350e-17 -1.215252e+01)) ((-2.844619e-14 -7.460563e+02 6.762000e-15) (5.058656e-16 3.471174e+01 -1.044761e-16))
0.00964866    	((1.381212e+02 1.290425e-14 1.923184e+03) (2.875483e+01 -7.326405e-17 -1.225796e+01)) ((-2.917310e-14 -7.399560e+02 6.680766e-15) (5.030052e-16 3.474624e+01 -1.139457e-16))
0.00971459    	((1.332382e+02 1.314530e-14 1.937317e+03) (2.866105e+01 -7.693346e-17 -1.234560e+01)) ((-2.758698e-14 -7.397906e+02 6.901260e-15) (5.001686e-16 3.473489e+01 -1.203227e-16))
0.00978182    	((1.356000e+02 1.321012e-14 1.928664e+03) (2.857630e+01 -8.051796e-17 -1.242481e+01)) ((-2.758940e-14 -7.371310e+02 6.911474e-15) (4.967598e-16 3.473282e+01 -1.303742e-16))
0.00982567    	((1.307515e+02 1.265690e-14 2.008473e+03) (2.847899e+01 -8.353826e-17 -1.246988e+01)) ((-2.761323e-14 -7.788488e+02 6.627230e-15) (4.948453e-16 3.468639e+01 -1.351301e-16))
0.00986972    	((1.323870e+02 1.252172e-14 2.018081e+03) (2.837608e+01 -8.577280e-17 -1.250983e+01)) ((-2.761391e-14 -7.832300e+02 6.567627e-15) (4.914970e-16 3.463297e+01 -1.412811e-16))
0.00991395    	((1.509545e+02 1.000044e-14 1.834742e+03) (2.828556e+01 -8.710119e-17 -1.255031e+01)) ((-2.801315e-14 -7.302523e+02 5.950420e-15) (4.868569e-16 3.459282e+01 -1.477321e-16))
0.00995838    	((1.861616e+02 5.506720e-15 1.519549e+03) (2.817513e+01 -8.741934e-17 -1.258471e+01)) ((-2.940245e-14 -6.341423e+02 4.825498e-15) (4.815728e-16 3.452878e+01 -1.512876e-16))
0.0100032     	((1.429702e+02 1.244525e-14 1.894168e+03) (2.809133e+01 -8.768766e-17 -1.263561e+01)) ((-2.767590e-14 -7.355583e+02 6.645177e-15) (4.762667e-16 3.449785e+01 -1.577399e-16))
0.0100484     	((2.620207e+02 1.151120e-14 1.238988e+03) (2.799333e+01 -8.805582e-17 -1.270851e+01)) ((-3.524665e-14 -5.519500e+02 5.893172e-15) (4.722741e-16 3.446006e+01 -1.619943e-16))