# Forces      
# CofR        : (0.000000e+00 0.000000e+00 -1.000000e+00)
# Time        forces(pressure viscous)	moments(pressure viscous)
0             	((0.000000e+00 8.429467e-17 5.115908e-13) (5.131539e+00 -1.981657e-20 9.438166e-01)) ((8.881784e-15 -1.136868e-13 3.552714e-15) (-4.719083e-02 4.666340e+00 2.565770e-01))
1.19976e-05   	((8.636495e+04 -4.890072e-14 8.426511e+05) (5.171288e+00 -1.841626e-20 8.430214e-01)) ((-4.213256e+04 -2.308837e+05 4.318248e+03) (-4.215107e-02 4.747144e+00 2.585644e-01))
2.63878e-05   	((1.136020e+04 -1.042949e-14 1.379053e+05) (5.176527e+00 -2.697348e-20 8.072967e-01)) ((-6.895267e+03 -4.675488e+04 5.680100e+02) (-4.036484e-02 4.764497e+00 2.588263e-01))
4.36511e-05   	((6.015271e+03 -5.818932e-15 7.860830e+04) (5.186821e+00 -2.847269e-20 7.921455e-01)) ((-3.930415e+03 -2.671981e+04 3.007635e+02) (-3.960727e-02 4.780659e+00 2.593411e-01))
6.43527e-05   	((4.477877e+03 -3.797380e-15 5.440972e+04) (5.205329e+00 -2.892114e-20 7.829541e-01)) ((-2.720486e+03 -1.830495e+04 2.238939e+02) (-3.914770e-02 4.802978e+00 2.602665e-01))
8.91792e-05   	((2.910233e+03 -2.614413e-15 3.760908e+04) (5.229470e+00 -2.924032e-20 7.764213e-01)) ((-1.880454e+03 -1.282413e+04 1.455117e+02) (-3.882106e-02 4.830065e+00 2.614735e-01))
0.000118941   	((2.437916e+03 -1.815548e-15 2.740558e+04) (5.261112e+00 -2.853457e-20 7.710512e-01)) ((-1.370279e+03 -8.945375e+03 1.218958e+02) (-3.855256e-02 4.863710e+00 2.630556e-01))
0.000154634   	((1.826853e+03 -1.345521e-15 2.071422e+04) (5.299551e+00 -1.768065e-20 7.753420e-01)) ((-1.035711e+03 -6.823290e+03 9.134266e+01) (-3.876710e-02 4.895830e+00 2.649776e-01))
0.000197405   	((1.654583e+03 -9.354499e-16 1.706454e+04) (5.348635e+00 -1.639755e-20 7.740840e-01)) ((-8.532271e+02 -5.584054e+03 8.272916e+01) (-3.870420e-02 4.944924e+00 2.674317e-01))
0.000248707   	((5.673001e+02 2.421012e-16 2.091328e+04) (5.396672e+00 -2.570004e-20 7.613370e-01)) ((-1.045664e+03 -1.081645e+04 2.836501e+01) (-3.806685e-02 5.004995e+00 2.698336e-01))
0.000310237   	((1.385510e+03 -2.552172e-16 1.016480e+04) (5.470881e+00 -2.621011e-20 7.611923e-01)) ((-5.082402e+02 -3.190839e+03 6.927548e+01) (-3.805961e-02 5.080903e+00 2.735440e-01))
0.000383982   	((1.111809e+03 -3.288760e-16 8.683307e+03) (5.566443e+00 -2.615493e-20 7.601118e-01)) ((-4.341653e+02 -2.628627e+03 5.559046e+01) (-3.800559e-02 5.177856e+00 2.783221e-01))
0.000472342   	((1.074315e+03 -2.735512e-16 7.609368e+03) (5.693809e+00 -2.615206e-20 7.598569e-01)) ((-3.804684e+02 -2.202963e+03 5.371576e+01) (-3.799285e-02 5.306093e+00 2.846904e-01))
0.000577897   	((1.174317e+03 -1.241380e-16 6.522831e+03) (5.869011e+00 -2.625583e-20 7.577655e-01)) ((-3.261415e+02 -1.736738e+03 5.871586e+01) (-3.788827e-02 5.481946e+00 2.934506e-01))
0.000704014   	((1.259508e+03 -3.186968e-17 5.940071e+03) (6.108792e+00 -2.612525e-20 7.599955e-01)) ((-2.970035e+02 -1.468534e+03 6.297538e+01) (-3.799978e-02 5.720664e+00 3.054396e-01))
0.000854764   	((3.577707e+03 6.040002e-16 8.490530e+03) (6.503248e+00 -2.098209e-20 7.564855e-01)) ((-4.245265e+02 -1.074981e+03 1.788853e+02) (-3.782428e-02 6.113122e+00 3.251624e-01))
0.00103538    	((3.554334e+02 -2.043374e-16 4.006938e+03) (6.909624e+00 -1.771695e-20 7.735069e-01)) ((-2.003469e+02 -1.331742e+03 1.777167e+01) (-3.867535e-02 6.515934e+00 3.454812e-01))
0.00125089    	((2.890900e+02 -1.592169e-16 3.286989e+03) (7.371943e+00 -1.620074e-20 8.288916e-01)) ((-1.643494e+02 -1.114779e+03 1.445450e+01) (-4.144458e-02 6.969187e+00 3.685972e-01))
0.00150772    	((2.966722e+02 -1.169366e-16 2.612321e+03) (7.888908e+00 -1.654727e-20 8.580205e-01)) ((-1.306161e+02 -8.879415e+02 1.483361e+01) (-4.290103e-02 7.482987e+00 3.944454e-01))
0.00181593    	((4.892679e+02 9.918822e-17 1.950056e+03) (8.455417e+00 -1.541248e-20 8.895911e-01)) ((-9.750280e+01 -6.019560e+02 2.446340e+01) (-4.447956e-02 8.046694e+00 4.227708e-01))
0.00217961    	((3.525915e+02 1.734637e-16 1.670184e+03) (9.040845e+00 -5.574470e-21 9.249270e-01)) ((-8.350920e+01 -5.827830e+02 1.762958e+01) (-4.624635e-02 8.629095e+00 4.520422e-01))
0.00261425    	((1.623457e+02 -5.817394e-17 1.953621e+03) (9.633332e+00 -5.073469e-21 9.537063e-01)) ((-9.768106e+01 -6.951244e+02 8.117287e+00) (-4.768531e-02 9.219831e+00 4.816666e-01))
0.0031256     	((1.333832e+02 -6.860264e-17 1.928277e+03) (1.021366e+01 -6.764510e-21 9.766436e-01)) ((-9.641385e+01 -7.493417e+02 6.669162e+00) (-4.883218e-02 9.799398e+00 5.106830e-01))
0.00370748    	((1.012045e+02 -2.054132e-16 3.340750e+03) (1.072694e+01 -1.086210e-20 1.029426e+00)) ((-1.670375e+02 -1.844007e+03 5.060227e+00) (-5.147128e-02 1.030336e+01 5.363469e-01))
0.00435918    	((9.073327e+01 -2.686106e-17 1.318503e+03) (1.109344e+01 -1.305923e-20 1.013615e+00)) ((-6.592516e+01 -4.607892e+02 4.536663e+00) (-5.068077e-02 1.067081e+01 5.546720e-01))
0.00469196    	((9.876327e+01 -3.039879e-17 1.337857e+03) (1.126377e+01 -1.397921e-20 9.928953e-01)) ((-6.689283e+01 -4.466598e+02 4.938163e+00) (-4.964476e-02 1.084286e+01 5.631887e-01))
0.00503214    	((1.061570e+02 -4.703890e-17 1.104547e+03) (1.140905e+01 -1.256824e-20 9.898228e-01)) ((-5.522735e+01 -3.580491e+02 5.307850e+00) (-4.949114e-02 1.098676e+01 5.704523e-01))
0.00536476    	((1.048709e+02 -3.909845e-17 1.059067e+03) (1.153316e+01 -1.041784e-20 9.834144e-01)) ((-5.295336e+01 -3.235179e+02 5.243544e+00) (-4.917072e-02 1.111161e+01 5.766578e-01))
0.00573064    	((1.252139e+02 -4.713057e-17 8.223415e+02) (1.165369e+01 -1.087377e-20 9.684645e-01)) ((-4.111708e+01 -2.603567e+02 6.260694e+00) (-4.842323e-02 1.123619e+01 5.826844e-01))
0.00609652    	((9.910579e+01 -2.522539e-17 1.052908e+03) (1.176886e+01 -7.123299e-21 9.546236e-01)) ((-5.264540e+01 -3.181691e+02 4.955290e+00) (-4.773118e-02 1.135741e+01 5.884429e-01))
0.00649376    	((9.390010e+01 -2.563009e-17 1.038630e+03) (1.188417e+01 -4.766250e-21 9.372186e-01)) ((-5.193152e+01 -3.228393e+02 4.695005e+00) (-4.686093e-02 1.148152e+01 5.942086e-01))
0.00690304    	((1.002852e+02 -2.925835e-17 8.396286e+02) (1.199103e+01 -4.450795e-21 9.325263e-01)) ((-4.198143e+01 -2.571099e+02 5.014262e+00) (-4.662631e-02 1.159426e+01 5.995517e-01))
0.00731232    	((8.867500e+01 -2.911830e-17 1.013257e+03) (1.208468e+01 -4.757859e-21 9.246184e-01)) ((-5.066284e+01 -3.365512e+02 4.433750e+00) (-4.623092e-02 1.169560e+01 6.042338e-01))
0.0077216     	((8.540870e+01 -2.796332e-17 1.033611e+03) (1.216302e+01 -4.077197e-21 9.154480e-01)) ((-5.168053e+01 -3.476248e+02 4.270435e+00) (-4.577240e-02 1.178265e+01 6.081511e-01))
0.00813088    	((7.699366e+01 -3.866361e-17 1.145461e+03) (1.223604e+01 -2.329901e-21 9.063373e-01)) ((-5.727307e+01 -4.267052e+02 3.849683e+00) (-4.531687e-02 1.186425e+01 6.118020e-01))
0.00851376    	((1.078606e+01 -1.213460e-16 2.302978e+03) (1.228297e+01 2.017985e-21 9.030676e-01)) ((-1.151489e+02 -1.214041e+03 5.393029e-01) (-4.515338e-02 1.191446e+01 6.141484e-01))
0.00892398    	((6.011182e+01 -3.680133e-17 1.307864e+03) (1.236694e+01 6.158903e-21 8.888047e-01)) ((-6.539319e+01 -5.728753e+02 3.005591e+00) (-4.444023e-02 1.200907e+01 6.183472e-01))
0.0093342     	((7.849308e+01 -2.270969e-17 9.731742e+02) (1.239482e+01 4.941597e-21 8.854317e-01)) ((-4.865871e+01 -3.815309e+02 3.924654e+00) (-4.427158e-02 1.204297e+01 6.197409e-01))
0.00971512    	((7.671590e+01 -2.657951e-17 1.037967e+03) (1.240811e+01 4.718719e-21 8.739204e-01)) ((-5.189837e+01 -3.796074e+02 3.835795e+00) (-4.369602e-02 1.206332e+01 6.204056e-01))
0.0101265     	((7.684299e+01 -2.507090e-17 9.884142e+02) (1.241233e+01 5.088072e-21 8.591044e-01)) ((-4.942071e+01 -3.492344e+02 3.842149e+00) (-4.295522e-02 1.207526e+01 6.206163e-01))
0.0105063     	((7.488836e+01 -2.521665e-17 9.952135e+02) (1.240134e+01 5.496717e-21 8.439718e-01)) ((-4.976067e+01 -3.598348e+02 3.744418e+00) (-4.219859e-02 1.207078e+01 6.200668e-01))
0.010886      	((7.300617e+01 -2.473638e-17 9.971642e+02) (1.241255e+01 9.400064e-21 8.243767e-01)) ((-4.985821e+01 -3.650668e+02 3.650309e+00) (-4.121884e-02 1.209197e+01 6.206274e-01))
0.0112658     	((7.489515e+01 -2.315366e-17 9.487025e+02) (1.239840e+01 1.126501e-20 8.068475e-01)) ((-4.743513e+01 -3.334617e+02 3.744757e+00) (-4.034237e-02 1.208479e+01 6.199200e-01))
0.0116455     	((7.347902e+01 -2.309108e-17 9.493295e+02) (1.236478e+01 1.036202e-20 7.873867e-01)) ((-4.746647e+01 -3.393876e+02 3.673951e+00) (-3.936934e-02 1.205782e+01 6.182390e-01))
0.0120253     	((7.103780e+01 -2.166643e-17 8.778526e+02) (1.241761e+01 1.333632e-20 7.632712e-01)) ((-4.389263e+01 -3.394906e+02 3.551890e+00) (-3.816356e-02 1.212683e+01 6.208805e-01))
0.012405      	((7.192050e+01 -2.232682e-17 9.307353e+02) (1.239688e+01 1.498161e-20 7.457378e-01)) ((-4.653676e+01 -3.340057e+02 3.596025e+00) (-3.728689e-02 1.211309e+01 6.198442e-01))
0.0127848     	((7.221183e+01 -2.109462e-17 9.144523e+02) (1.236986e+01 1.626036e-20 7.282502e-01)) ((-4.572262e+01 -3.245044e+02 3.610591e+00) (-3.641251e-02 1.209284e+01 6.184931e-01))
0.0131645     	((7.147527e+01 -2.055498e-17 9.071631e+02) (1.232646e+01 1.844908e-20 7.115653e-01)) ((-4.535815e+01 -3.213150e+02 3.573763e+00) (-3.557827e-02 1.205461e+01 6.163229e-01))
0.0135443     	((6.936272e+01 -2.106959e-17 9.198394e+02) (1.226510e+01 1.466739e-20 6.950893e-01)) ((-4.599197e+01 -3.336172e+02 3.468136e+00) (-3.475447e-02 1.199763e+01 6.132550e-01))
0.013924      	((6.482155e+01 -2.146886e-17 9.711241e+02) (1.230046e+01 1.239454e-20 6.664612e-01)) ((-4.855620e+01 -3.744506e+02 3.241077e+00) (-3.332306e-02 1.204939e+01 6.150228e-01))
0.0143038     	((6.835867e+01 -2.012056e-17 9.093118e+02) (1.226272e+01 9.625129e-21 6.475938e-01)) ((-4.546559e+01 -3.311582e+02 3.417934e+00) (-3.237969e-02 1.201829e+01 6.131362e-01))
0.0146835     	((6.866919e+01 -1.996430e-17 8.970516e+02) (1.221992e+01 7.334504e-21 6.284962e-01)) ((-4.485258e+01 -3.234625e+02 3.433460e+00) (-3.142481e-02 1.198193e+01 6.109958e-01))
0.0150633     	((6.748473e+01 -2.084780e-17 8.996171e+02) (1.217135e+01 6.178930e-21 6.064011e-01)) ((-4.498086e+01 -3.280807e+02 3.374237e+00) (-3.032006e-02 1.194051e+01 6.085675e-01))
0.015443      	((6.758518e+01 -2.169876e-17 8.030804e+02) (1.213004e+01 6.216653e-21 5.943741e-01)) ((-4.015402e+01 -2.965390e+02 3.379259e+00) (-2.971870e-02 1.190280e+01 6.065020e-01))
0.0157935     	((6.649368e+01 -2.097920e-17 8.959739e+02) (1.206576e+01 3.956355e-21 5.816480e-01)) ((-4.479870e+01 -3.291882e+02 3.324684e+00) (-2.908240e-02 1.184103e+01 6.032880e-01))
0.0161441     	((6.203264e+01 -2.174463e-17 9.502707e+02) (1.207571e+01 3.849021e-21 5.595536e-01)) ((-4.751354e+01 -3.719509e+02 3.101632e+00) (-2.797768e-02 1.186313e+01 6.037854e-01))
0.0164946     	((6.644373e+01 -2.084626e-17 8.805480e+02) (1.203051e+01 3.937223e-21 5.451297e-01)) ((-4.402740e+01 -3.211339e+02 3.322186e+00) (-2.725648e-02 1.182236e+01 6.015255e-01))
0.0168452     	((6.617817e+01 -2.195727e-17 8.800624e+02) (1.198141e+01 5.547770e-21 5.312756e-01)) ((-4.400312e+01 -3.221514e+02 3.308908e+00) (-2.656378e-02 1.177713e+01 5.990707e-01))
0.0171957     	((6.615730e+01 -2.172673e-17 8.707654e+02) (1.192668e+01 8.972816e-21 5.188185e-01)) ((-4.353827e+01 -3.149928e+02 3.307865e+00) (-2.594092e-02 1.172533e+01 5.963340e-01))
0.0175462     	((6.542060e+01 -2.203865e-17 8.730360e+02) (1.186192e+01 7.406658e-21 5.077109e-01)) ((-4.365180e+01 -3.188175e+02 3.271030e+00) (-2.538555e-02 1.166270e+01 5.930959e-01))
0.0178968     	((5.933011e+01 -2.344613e-17 9.512542e+02) (1.187482e+01 8.393527e-21 4.864569e-01)) ((-4.756271e+01 -3.787758e+02 2.966505e+00) (-2.432285e-02 1.168814e+01 5.937410e-01))
0.0182473     	((6.509177e+01 -2.225006e-17 8.684943e+02) (1.183328e+01 8.745931e-21 4.705528e-01)) ((-4.342472e+01 -3.187605e+02 3.254589e+00) (-2.352764e-02 1.165213e+01 5.916642e-01))
0.0185978     	((6.414873e+01 -2.289677e-17 7.822332e+02) (1.178920e+01 9.746337e-21 4.602820e-01)) ((-3.911166e+01 -2.885277e+02 3.207437e+00) (-2.301410e-02 1.161097e+01 5.894601e-01))
0.0189484     	((6.360738e+01 -2.187227e-17 8.559922e+02) (1.173603e+01 9.756147e-21 4.501082e-01)) ((-4.279961e+01 -3.177696e+02 3.180369e+00) (-2.250541e-02 1.155987e+01 5.868015e-01))
0.0192989     	((6.556470e+01 -2.117631e-17 8.398489e+02) (1.168081e+01 7.382130e-21 4.396941e-01)) ((-4.199244e+01 -3.009556e+02 3.278235e+00) (-2.198471e-02 1.150664e+01 5.840403e-01))
0.0196495     	((5.906903e+01 -2.261857e-17 9.269407e+02) (1.168592e+01 6.965766e-21 4.196624e-01)) ((-4.634703e+01 -3.657834e+02 2.953451e+00) (-2.098312e-02 1.152369e+01 5.842960e-01))
0.02          	((6.329789e+01 -2.105904e-17 8.642798e+02) (1.164389e+01 8.008683e-21 4.078568e-01)) ((-4.321399e+01 -3.194300e+02 3.164894e+00) (-2.039284e-02 1.148557e+01 5.821944e-01))
0.0203704     	((6.235840e+01 -2.165687e-17 8.721760e+02) (1.159321e+01 9.453948e-21 3.967812e-01)) ((-4.360880e+01 -3.279451e+02 3.117920e+00) (-1.983906e-02 1.143774e+01 5.796603e-01))
0.0207407     	((6.246856e+01 -2.064997e-17 8.639225e+02) (1.154521e+01 1.037053e-20 3.845365e-01)) ((-4.319612e+01 -3.216915e+02 3.123428e+00) (-1.922683e-02 1.139364e+01 5.772607e-01))
0.0211111     	((6.301427e+01 -2.104481e-17 8.553169e+02) (1.148605e+01 7.230726e-21 3.750126e-01)) ((-4.276585e+01 -3.158205e+02 3.150714e+00) (-1.875063e-02 1.133571e+01 5.743023e-01))
0.0214815     	((5.833411e+01 -2.178020e-17 9.128499e+02) (1.147345e+01 9.180382e-21 3.572965e-01)) ((-4.564250e+01 -3.593039e+02 2.916706e+00) (-1.786483e-02 1.133262e+01 5.736726e-01))
0.0218519     	((6.254516e+01 -2.039648e-17 8.511384e+02) (1.142999e+01 9.376382e-21 3.421367e-01)) ((-4.255692e+01 -3.135978e+02 3.127258e+00) (-1.710683e-02 1.129400e+01 5.714993e-01))
0.0222222     	((6.046092e+01 -2.153579e-17 7.650207e+02) (1.137875e+01 9.966187e-21 3.372947e-01)) ((-3.825103e+01 -2.852660e+02 3.023046e+00) (-1.686474e-02 1.124276e+01 5.689377e-01))
0.0225926     	((6.299887e+01 -2.005288e-17 8.355927e+02) (1.132269e+01 7.311691e-21 3.291927e-01)) ((-4.177964e+01 -3.052945e+02 3.149943e+00) (-1.645963e-02 1.118764e+01 5.661343e-01))
0.022963      	((5.790003e+01 -2.076351e-17 9.030495e+02) (1.130895e+01 1.064323e-20 3.139826e-01)) ((-4.515248e+01 -3.556793e+02 2.895002e+00) (-1.569913e-02 1.118212e+01 5.654476e-01))
0.0233333     	((6.180609e+01 -1.983124e-17 8.466536e+02) (1.125701e+01 1.105059e-20 3.052562e-01)) ((-4.233268e+01 -3.137205e+02 3.090305e+00) (-1.526281e-02 1.113198e+01 5.628504e-01))
0.0237037     	((6.048403e+01 -2.083472e-17 8.615775e+02) (1.119665e+01 1.078451e-20 2.975959e-01)) ((-4.307887e+01 -3.264088e+02 3.024201e+00) (-1.487980e-02 1.107261e+01 5.598325e-01))
0.0240741     	((6.279294e+01 -1.899782e-17 8.284284e+02) (1.113410e+01 9.487245e-21 2.915097e-01)) ((-4.142142e+01 -2.998660e+02 3.139647e+00) (-1.457548e-02 1.100974e+01 5.567051e-01))
0.0244444     	((5.668109e+01 -2.051305e-17 9.090905e+02) (1.111498e+01 1.362898e-20 2.804183e-01)) ((-4.545452e+01 -3.603889e+02 2.834055e+00) (-1.402091e-02 1.099559e+01 5.557489e-01))
0.0248148     	((6.125752e+01 -1.951045e-17 8.437131e+02) (1.105864e+01 1.399005e-20 2.739213e-01)) ((-4.218565e+01 -3.121067e+02 3.062876e+00) (-1.369607e-02 1.093984e+01 5.529320e-01))
0.0251852     	((5.990377e+01 -1.988002e-17 8.570372e+02) (1.099666e+01 1.445637e-20 2.669404e-01)) ((-4.285186e+01 -3.238370e+02 2.995188e+00) (-1.334702e-02 1.087860e+01 5.498330e-01))
0.0255556     	((6.154311e+01 -1.908599e-17 8.232397e+02) (1.093727e+01 1.252156e-20 2.572238e-01)) ((-4.116199e+01 -3.013547e+02 3.077155e+00) (-1.286119e-02 1.082126e+01 5.468637e-01))
0.0259259     	((5.595827e+01 -2.127393e-17 7.936157e+02) (1.090011e+01 1.730691e-20 2.544649e-01)) ((-3.968079e+01 -3.084494e+02 2.797914e+00) (-1.272325e-02 1.078427e+01 5.450057e-01))
0.0262963     	((6.041684e+01 -2.008670e-17 8.395792e+02) (1.083423e+01 1.345215e-20 2.502481e-01)) ((-4.197896e+01 -3.132620e+02 3.020842e+00) (-1.251240e-02 1.071746e+01 5.417114e-01))
0.0266667     	((6.011008e+01 -2.029751e-17 8.445944e+02) (1.077560e+01 1.309296e-20 2.460417e-01)) ((-4.222972e+01 -3.160661e+02 3.005504e+00) (-1.230209e-02 1.065804e+01 5.387798e-01))
0.027037      	((5.687655e+01 -2.138270e-17 8.882438e+02) (1.074270e+01 1.729343e-20 2.400638e-01)) ((-4.441219e+01 -3.482715e+02 2.843828e+00) (-1.200319e-02 1.062637e+01 5.371348e-01))
0.0274074     	((5.987389e+01 -2.096623e-17 8.443235e+02) (1.067876e+01 1.483855e-20 2.367975e-01)) ((-4.221618e+01 -3.152960e+02 2.993695e+00) (-1.183987e-02 1.056109e+01 5.339380e-01))
0.0277778     	((6.040349e+01 -2.167305e-17 8.359523e+02) (1.061368e+01 1.245059e-20 2.340665e-01)) ((-4.179761e+01 -3.091312e+02 3.020175e+00) (-1.170333e-02 1.049431e+01 5.306840e-01))
0.0281481     	((5.743793e+01 -2.287764e-17 8.741177e+02) (1.057386e+01 1.555247e-20 2.302912e-01)) ((-4.370588e+01 -3.381850e+02 2.871896e+00) (-1.151456e-02 1.045413e+01 5.286930e-01))
0.0285185     	((5.982657e+01 -2.227048e-17 8.370359e+02) (1.050418e+01 1.499330e-20 2.293680e-01)) ((-4.185179e+01 -3.113696e+02 2.991329e+00) (-1.146840e-02 1.038136e+01 5.252089e-01))
0.0288889     	((5.787844e+01 -2.293041e-17 8.576482e+02) (1.045548e+01 1.565794e-20 2.231413e-01)) ((-4.288241e+01 -3.286428e+02 2.893922e+00) (-1.115706e-02 1.033233e+01 5.227741e-01))
0.0292593     	((5.570361e+01 -2.387060e-17 7.522473e+02) (1.038366e+01 1.201994e-20 2.283890e-01)) ((-3.761236e+01 -2.819898e+02 2.785181e+00) (-1.141945e-02 1.025423e+01 5.191830e-01))
0.0296296     	((5.682757e+01 -2.296274e-17 8.703267e+02) (1.035532e+01 1.320336e-20 2.228239e-01)) ((-4.351633e+01 -3.382464e+02 2.841378e+00) (-1.114119e-02 1.022775e+01 5.177659e-01))
0.03          	((5.907014e+01 -2.218399e-17 8.398194e+02) (1.029268e+01 1.002707e-20 2.195268e-01)) ((-4.199097e+01 -3.150620e+02 2.953507e+00) (-1.097634e-02 1.016470e+01 5.146341e-01))
0.0303704     	((5.785228e+01 -2.174967e-17 8.535964e+02) (1.025628e+01 1.007596e-20 2.147344e-01)) ((-4.267982e+01 -3.258124e+02 2.892614e+00) (-1.073672e-02 1.012946e+01 5.128142e-01))
0.0307407     	((5.781352e+01 -2.167214e-17 8.572489e+02) (1.021212e+01 1.008060e-20 2.111030e-01)) ((-4.286244e+01 -3.272823e+02 2.890676e+00) (-1.055515e-02 1.008541e+01 5.106061e-01))
0.0311111     	((5.755483e+01 -2.071065e-17 8.598715e+02) (1.017726e+01 1.017924e-20 2.074410e-01)) ((-4.299358e+01 -3.288607e+02 2.877741e+00) (-1.037205e-02 1.005086e+01 5.088632e-01))
0.0314815     	((5.806677e+01 -1.982920e-17 8.528707e+02) (1.013438e+01 1.009308e-20 2.045928e-01)) ((-4.264354e+01 -3.230205e+02 2.903338e+00) (-1.022964e-02 1.000746e+01 5.067188e-01))
0.0318519     	((5.685928e+01 -2.016829e-17 8.617438e+02) (1.010556e+01 1.003559e-20 2.008513e-01)) ((-4.308719e+01 -3.315317e+02 2.842964e+00) (-1.004256e-02 9.978790e+00 5.052780e-01))
0.0322222     	((5.759202e+01 -1.953467e-17 8.510968e+02) (1.006970e+01 1.198891e-20 1.924691e-01)) ((-4.255484e+01 -3.233518e+02 2.879601e+00) (-9.623455e-03 9.945215e+00 5.034848e-01))
0.0325926     	((5.237581e+01 -2.020179e-17 7.672825e+02) (1.004495e+01 8.853928e-21 1.941966e-01)) ((-3.836413e+01 -2.940105e+02 2.618790e+00) (-9.709831e-03 9.917661e+00 5.022476e-01))
0.032963      	((5.744209e+01 -1.970470e-17 8.568075e+02) (1.000686e+01 7.596319e-21 1.912430e-01)) ((-4.284037e+01 -3.269283e+02 2.872104e+00) (-9.562151e-03 9.878486e+00 5.003429e-01))
0.0333333     	((5.674280e+01 -2.009581e-17 8.627123e+02) (9.979696e+00 6.012181e-21 1.871932e-01)) ((-4.313562e+01 -3.322979e+02 2.837140e+00) (-9.359661e-03 9.850803e+00 4.989848e-01))
0.0337037     	((5.681607e+01 -1.961863e-17 8.507130e+02) (9.949401e+00 3.568286e-21 1.831561e-01)) ((-4.253565e+01 -3.254361e+02 2.840803e+00) (-9.157806e-03 9.819875e+00 4.974700e-01))
0.0340741     	((5.674267e+01 -1.972496e-17 8.560230e+02) (9.924492e+00 9.543467e-22 1.777924e-01)) ((-4.280115e+01 -3.285613e+02 2.837133e+00) (-8.889618e-03 9.795109e+00 4.962246e-01))
0.0344444     	((5.672341e+01 -1.960727e-17 8.590514e+02) (9.900758e+00 -1.588902e-21 1.716452e-01)) ((-4.295257e+01 -3.298699e+02 2.836170e+00) (-8.582258e-03 9.771855e+00 4.950379e-01))
0.0348148     	((5.665699e+01 -1.930557e-17 8.562596e+02) (9.879581e+00 -3.814664e-21 1.642837e-01)) ((-4.281298e+01 -3.283713e+02 2.832850e+00) (-8.214183e-03 9.751673e+00 4.939791e-01))
0.0351852     	((5.637787e+01 -1.917458e-17 8.553641e+02) (9.860622e+00 -3.972760e-21 1.554088e-01)) ((-4.276821e+01 -3.283747e+02 2.818893e+00) (-7.770440e-03 9.734313e+00 4.930311e-01))
0.0355556     	((5.634452e+01 -1.896449e-17 8.598473e+02) (9.849644e+00 -6.299864e-21 1.391120e-01)) ((-4.299237e+01 -3.303630e+02 2.817226e+00) (-6.955601e-03 9.728878e+00 4.924822e-01))
0.0359259     	((5.071786e+01 -1.885123e-17 7.673755e+02) (9.835371e+00 -8.360920e-21 1.346786e-01)) ((-3.836878e+01 -2.931643e+02 2.535893e+00) (-6.733932e-03 9.713356e+00 4.917685e-01))
0.0362963     	((5.619868e+01 -1.852909e-17 8.596452e+02) (9.818566e+00 -9.960516e-21 1.233682e-01)) ((-4.298226e+01 -3.302357e+02 2.809934e+00) (-6.168411e-03 9.698394e+00 4.909283e-01))
0.0366667     	((5.592596e+01 -1.862688e-17 8.662414e+02) (9.803112e+00 -1.120327e-20 1.112392e-01)) ((-4.331207e+01 -3.342215e+02 2.796298e+00) (-5.561958e-03 9.684932e+00 4.901556e-01))
0.037037      	((5.574109e+01 -1.842196e-17 8.643353e+02) (9.788543e+00 -1.325663e-20 9.828941e-02)) ((-4.321676e+01 -3.335683e+02 2.787055e+00) (-4.914470e-03 9.672554e+00 4.894272e-01))
0.0374074     	((5.573988e+01 -1.840314e-17 8.674355e+02) (9.774073e+00 -1.317242e-20 8.455496e-02)) ((-4.337178e+01 -3.352754e+02 2.786994e+00) (-4.227748e-03 9.660352e+00 4.887036e-01))
0.0377778     	((5.565132e+01 -1.827448e-17 8.648208e+02) (9.759628e+00 -1.255080e-20 6.929513e-02)) ((-4.324104e+01 -3.342296e+02 2.782566e+00) (-3.464756e-03 9.648494e+00 4.879814e-01))
0.0381481     	((5.543633e+01 -1.842187e-17 8.669223e+02) (9.745257e+00 -1.256951e-20 5.215815e-02)) ((-4.334611e+01 -3.360201e+02 2.771816e+00) (-2.607908e-03 9.637183e+00 4.872628e-01))
0.0385185     	((5.510421e+01 -1.828554e-17 8.605738e+02) (9.732991e+00 -1.292201e-20 3.214210e-02)) ((-4.302869e+01 -3.335569e+02 2.755211e+00) (-1.607105e-03 9.629143e+00 4.866495e-01))
0.0388889     	((5.495124e+01 -1.827739e-17 8.595381e+02) (9.729403e+00 -1.409442e-20 2.767124e-03)) ((-4.297691e+01 -3.334586e+02 2.747562e+00) (-1.383562e-04 9.634936e+00 4.864701e-01))
0.0392593     	((4.863911e+01 -1.834172e-17 7.642708e+02) (9.725120e+00 -1.425529e-20 -1.320175e-02)) ((-3.821354e+01 -2.937401e+02 2.431955e+00) (6.600877e-04 9.632285e+00 4.862560e-01))
0.0396296     	((5.505135e+01 -1.834008e-17 8.666094e+02) (9.720030e+00 -1.437314e-20 -3.723785e-02)) ((-4.333047e+01 -3.371158e+02 2.752568e+00) (1.861893e-03 9.632787e+00 4.860015e-01))
0.04          	((5.503833e+01 -1.830826e-17 8.670209e+02) (9.720965e+00 -1.513750e-20 -6.320364e-02)) ((-4.335104e+01 -3.373106e+02 2.751917e+00) (3.160182e-03 9.640237e+00 4.860482e-01))
0.0403774     	((5.468857e+01 -1.836342e-17 8.641122e+02) (9.728313e+00 -1.627141e-20 -9.163562e-02)) ((-4.320561e+01 -3.363080e+02 2.734429e+00) (4.581781e-03 9.655313e+00 4.864157e-01))
0.0407547     	((5.438116e+01 -1.835953e-17 8.613752e+02) (9.741602e+00 -1.825016e-20 -1.227191e-01)) ((-4.306876e+01 -3.353324e+02 2.719058e+00) (6.135953e-03 9.677724e+00 4.870801e-01))
0.0411321     	((5.472707e+01 -1.836242e-17 8.693360e+02) (9.758524e+00 -2.001724e-20 -1.565881e-01)) ((-4.346680e+01 -3.388241e+02 2.736354e+00) (7.829403e-03 9.705028e+00 4.879262e-01))
0.0415094     	((5.465446e+01 -1.824049e-17 8.671706e+02) (9.777152e+00 -1.946838e-20 -1.925851e-01)) ((-4.335853e+01 -3.375499e+02 2.732723e+00) (9.629256e-03 9.734970e+00 4.888576e-01))
0.0418868     	((5.413906e+01 -1.823120e-17 8.608037e+02) (9.797591e+00 -1.803784e-20 -2.307510e-01)) ((-4.304018e+01 -3.350636e+02 2.706953e+00) (1.153755e-02 9.767849e+00 4.898796e-01))
0.0422642     	((5.446025e+01 -1.824362e-17 8.690262e+02) (9.823067e+00 -1.539216e-20 -2.727594e-01)) ((-4.345131e+01 -3.388477e+02 2.723012e+00) (1.363797e-02 9.808042e+00 4.911534e-01))
0.0426415     	((4.862396e+01 -1.831549e-17 7.858382e+02) (9.849036e+00 -1.338671e-20 -3.095542e-01)) ((-3.929191e+01 -3.023626e+02 2.431198e+00) (1.547771e-02 9.845455e+00 4.924518e-01))
0.0430189     	((5.246965e+01 -1.829702e-17 8.455276e+02) (9.872916e+00 -8.784096e-21 -3.468413e-01)) ((-4.227638e+01 -3.293928e+02 2.623483e+00) (1.734207e-02 9.880645e+00 4.936458e-01))
0.0433962     	((5.382053e+01 -1.828083e-17 8.674155e+02) (9.901002e+00 -2.618913e-21 -3.887567e-01)) ((-4.337078e+01 -3.395907e+02 2.691026e+00) (1.943784e-02 9.922591e+00 4.950501e-01))
0.0437736     	((5.379964e+01 -1.833499e-17 8.701148e+02) (9.936392e+00 3.435052e-21 -4.345712e-01)) ((-4.350574e+01 -3.412180e+02 2.689982e+00) (2.172856e-02 9.974129e+00 4.968196e-01))
0.0441509     	((5.353213e+01 -1.842724e-17 8.697611e+02) (9.977869e+00 9.486793e-21 -4.835126e-01)) ((-4.348806e+01 -3.416127e+02 2.676607e+00) (2.417563e-02 1.003354e+01 4.988934e-01))
0.0445283     	((5.359588e+01 -1.851941e-17 8.738027e+02) (1.001994e+01 1.525592e-20 -5.346109e-01)) ((-4.369014e+01 -3.437048e+02 2.679794e+00) (2.673055e-02 1.009438e+01 5.009968e-01))
0.0449057     	((5.346165e+01 -1.871828e-17 8.762171e+02) (1.006169e+01 2.137718e-20 -5.866818e-01)) ((-4.381085e+01 -3.451803e+02 2.673082e+00) (2.933409e-02 1.015511e+01 5.030847e-01))
0.045283      	((5.287847e+01 -1.895515e-17 8.713611e+02) (1.010368e+01 3.000738e-20 -6.396650e-01)) ((-4.356806e+01 -3.434221e+02 2.643923e+00) (3.198325e-02 1.021629e+01 5.051838e-01))
0.0456604     	((5.297430e+01 -1.917049e-17 8.766721e+02) (1.014715e+01 3.252518e-20 -6.929726e-01)) ((-4.383360e+01 -3.459938e+02 2.648715e+00) (3.464863e-02 1.027881e+01 5.073573e-01))
0.0460377     	((5.295705e+01 -1.982648e-17 8.809785e+02) (1.019525e+01 3.042710e-20 -7.525403e-01)) ((-4.404893e+01 -3.482036e+02 2.647853e+00) (3.762701e-02 1.034962e+01 5.097627e-01))
0.0464151     	((4.525509e+01 -4.837327e-17 7.810459e+02) (1.024113e+01 2.712093e-20 -7.986293e-01)) ((-3.905229e+01 -3.026275e+02 2.262754e+00) (3.993147e-02 1.040991e+01 5.120563e-01))
0.0467925     	((5.288299e+01 -1.971368e-17 8.875892e+02) (1.028352e+01 2.497296e-20 -8.529023e-01)) ((-4.437946e+01 -3.521862e+02 2.644149e+00) (4.264511e-02 1.047120e+01 5.141761e-01))
0.0471698     	((5.262948e+01 -1.975514e-17 8.861610e+02) (1.032656e+01 2.184044e-20 -9.092191e-01)) ((-4.430805e+01 -3.520632e+02 2.631474e+00) (4.546096e-02 1.053406e+01 5.163282e-01))
0.0475472     	((5.245791e+01 -1.989298e-17 8.873557e+02) (1.036986e+01 1.763280e-20 -9.670246e-01)) ((-4.436779e+01 -3.532363e+02 2.622895e+00) (4.835123e-02 1.059757e+01 5.184932e-01))
0.0479245     	((5.141591e+01 -2.306703e-17 8.763271e+02) (1.041213e+01 1.175239e-20 -1.026348e+00)) ((-4.381635e+01 -3.487096e+02 2.570796e+00) (5.131742e-02 1.066062e+01 5.206067e-01))
0.0483019     	((5.198807e+01 -2.070898e-17 8.875027e+02) (1.045101e+01 5.840014e-21 -1.085544e+00)) ((-4.437513e+01 -3.543093e+02 2.599404e+00) (5.427722e-02 1.071969e+01 5.225507e-01))
0.0486792     	((5.151598e+01 -2.161529e-17 8.852311e+02) (1.048601e+01 -3.970811e-22 -1.143754e+00)) ((-4.426156e+01 -3.538410e+02 2.575799e+00) (5.718771e-02 1.077410e+01 5.243004e-01))
0.0490566     	((5.115826e+01 -2.234473e-17 8.834699e+02) (1.051857e+01 -6.032807e-21 -1.200611e+00)) ((-4.417349e+01 -3.533830e+02 2.557913e+00) (6.003056e-02 1.082568e+01 5.259285e-01))
0.049434      	((5.134642e+01 -2.157998e-17 8.908439e+02) (1.055149e+01 -8.911932e-21 -1.261918e+00)) ((-4.454219e+01 -3.570226e+02 2.567321e+00) (6.309588e-02 1.088130e+01 5.275744e-01))
0.0498113     	((4.269713e+01 -3.531108e-17 7.862162e+02) (1.057403e+01 -1.795050e-20 -1.304763e+00)) ((-3.931081e+01 -3.072427e+02 2.134857e+00) (6.523815e-02 1.091571e+01 5.287013e-01))
0.0501887     	((5.138050e+01 -2.115557e-17 9.002167e+02) (1.058336e+01 -2.500006e-20 -1.351977e+00)) ((-4.501083e+01 -3.622803e+02 2.569025e+00) (6.759884e-02 1.094021e+01 5.291680e-01))
0.050566      	((5.121168e+01 -2.135192e-17 9.007839e+02) (1.058417e+01 -3.274061e-20 -1.396259e+00)) ((-4.503919e+01 -3.628661e+02 2.560584e+00) (6.981295e-02 1.095548e+01 5.292084e-01))
0.0509434     	((5.097135e+01 -2.152003e-17 9.019617e+02) (1.057419e+01 -3.935715e-20 -1.437415e+00)) ((-4.509808e+01 -3.639697e+02 2.548567e+00) (7.187075e-02 1.095909e+01 5.287097e-01))
0.0513208     	((4.992462e+01 -2.302951e-17 8.917822e+02) (1.055734e+01 -4.540635e-20 -1.475530e+00)) ((-4.458911e+01 -3.596183e+02 2.496231e+00) (7.377651e-02 1.095508e+01 5.278671e-01))
0.0516981     	((5.038197e+01 -2.203672e-17 9.007040e+02) (1.053263e+01 -5.076879e-20 -1.511100e+00)) ((-4.503520e+01 -3.644844e+02 2.519098e+00) (7.555502e-02 1.094271e+01 5.266315e-01))
0.0520755     	((4.929256e+01 -2.369600e-17 8.907177e+02) (1.050609e+01 -5.743189e-20 -1.545404e+00)) ((-4.453588e+01 -3.604540e+02 2.464628e+00) (7.727020e-02 1.092902e+01 5.253045e-01))
0.0524528     	((4.995631e+01 -2.232176e-17 9.027350e+02) (1.048087e+01 -6.408962e-20 -1.580101e+00)) ((-4.513675e+01 -3.665369e+02 2.497815e+00) (7.900504e-02 1.091835e+01 5.240434e-01))
0.0528302     	((3.900593e+01 -3.373639e-17 7.758713e+02) (1.045517e+01 -6.987669e-20 -1.609230e+00)) ((-3.879357e+01 -3.040226e+02 1.950297e+00) (8.046151e-02 1.090504e+01 5.227583e-01))
0.0532075     	((4.891830e+01 -2.326534e-17 8.994269e+02) (1.041642e+01 -7.551182e-20 -1.639670e+00)) ((-4.497135e+01 -3.658071e+02 2.445915e+00) (8.198350e-02 1.088036e+01 5.208210e-01))
0.0535849     	((4.933670e+01 -2.277856e-17 9.084927e+02) (1.037214e+01 -8.084773e-20 -1.668368e+00)) ((-4.542463e+01 -3.704409e+02 2.466835e+00) (8.341841e-02 1.085017e+01 5.186069e-01))
0.0539623     	((4.903597e+01 -2.312386e-17 9.102443e+02) (1.032128e+01 -8.572601e-20 -1.694734e+00)) ((-4.551222e+01 -3.716507e+02 2.451798e+00) (8.473672e-02 1.081279e+01 5.160641e-01))
0.0543396     	((4.907931e+01 -2.295973e-17 9.151835e+02) (1.026632e+01 -9.023923e-20 -1.718928e+00)) ((-4.575918e+01 -3.743081e+02 2.453965e+00) (8.594639e-02 1.077074e+01 5.133160e-01))