# Forces      
# CofR        : (0.000000e+00 0.000000e+00 -1.000000e+00)
# Time        forces(pressure viscous)	moments(pressure viscous)
0             	((-5.684342e-14 6.445847e-15 -5.684342e-13) (1.484530e+01 3.919180e-18 1.945759e+00)) ((-1.025239e-13 5.684342e-13 -3.521632e-15) (-4.476798e-18 1.391930e+01 1.061839e-17))
1.19976e-05   	((2.025449e+05 8.059822e-12 1.011766e+06) (1.504318e+01 2.902943e-18 1.714008e+00)) ((-2.641626e-11 -1.137452e+05 4.326629e-12) (3.375852e-18 1.417602e+01 8.164390e-18))
2.63878e-05   	((2.502699e+04 1.387263e-12 1.696250e+05) (1.503728e+01 2.811228e-18 1.629191e+00)) ((-4.206815e-12 -3.059359e+04 7.693527e-13) (5.382383e-18 1.419553e+01 7.829803e-18))
4.36511e-05   	((1.478320e+04 8.356179e-13 1.009719e+05) (1.504532e+01 2.597568e-18 1.574981e+00)) ((-2.563710e-12 -1.854532e+04 4.542253e-13) (6.744175e-18 1.422380e+01 7.501205e-18))
6.43527e-05   	((1.010295e+04 6.179295e-13 7.290315e+04) (1.505940e+01 2.390016e-18 1.523614e+00)) ((-1.861702e-12 -1.468503e+04 3.346313e-13) (7.342069e-18 1.426226e+01 6.891119e-18))
8.91792e-05   	((6.759982e+03 5.024666e-13 5.557040e+04) (1.507704e+01 2.316607e-18 1.464022e+00)) ((-1.339919e-12 -1.384714e+04 2.912592e-13) (6.713106e-18 1.431470e+01 4.832567e-18))
0.000118941   	((5.559039e+03 3.273644e-13 3.768305e+04) (1.509701e+01 2.079266e-18 1.406404e+00)) ((-1.002619e-12 -7.484454e+03 1.769467e-13) (6.653187e-18 1.436618e+01 3.136110e-18))
0.000154634   	((4.017768e+03 2.450752e-13 2.829455e+04) (1.512541e+01 1.802747e-18 1.333372e+00)) ((-7.548927e-13 -5.722487e+03 1.315472e-13) (6.289631e-18 1.443602e+01 1.016739e-18))
0.000197405   	((3.081318e+03 3.112986e-13 2.640909e+04) (1.515505e+01 1.262846e-18 1.242375e+00)) ((-7.156354e-13 -7.381929e+03 2.011549e-13) (6.230152e-18 1.452312e+01 -1.841990e-18))
0.000248707   	((2.551775e+03 1.745380e-13 1.819683e+04) (1.519617e+01 6.342427e-19 1.157229e+00)) ((-5.188170e-13 -4.023630e+03 9.907311e-14) (7.135388e-18 1.461560e+01 -5.526811e-18))
0.000310237   	((2.142846e+03 1.342604e-13 1.441902e+04) (1.526845e+01 7.619524e-19 1.076162e+00)) ((-4.154137e-13 -2.964954e+03 7.396703e-14) (6.875449e-18 1.473738e+01 -1.034473e-17))
0.000383982   	((1.637298e+03 2.089756e-13 1.460688e+04) (1.537465e+01 6.658646e-19 9.995563e-01)) ((-4.170449e-13 -4.498964e+03 1.489533e-13) (5.121430e-18 1.490074e+01 -1.290383e-17))
0.000471553   	((1.448059e+03 1.009222e-13 1.000494e+04) (1.554062e+01 -2.596425e-19 9.601821e-01)) ((-3.019445e-13 -2.186787e+03 5.825377e-14) (2.595780e-18 1.509963e+01 -1.336352e-17))
0.000572737   	((1.341730e+03 8.489696e-14 8.381439e+03) (1.576732e+01 -4.259980e-19 9.611937e-01)) ((-2.786642e-13 -1.784606e+03 4.894242e-14) (-1.065701e-18 1.534657e+01 -9.221596e-18))
0.000687691   	((1.049831e+03 1.188573e-13 9.210049e+03) (1.605300e+01 2.424191e-19 9.571145e-01)) ((-3.475390e-13 -2.893703e+03 7.026049e-14) (-3.901341e-19 1.566581e+01 2.161807e-18))
0.000817304   	((1.054326e+03 6.528251e-14 6.227332e+03) (1.637279e+01 -2.213694e-18 1.008325e+00)) ((-2.254837e-13 -1.291444e+03 3.608838e-14) (-5.481737e-19 1.598230e+01 7.413829e-18))
0.000961535   	((8.204735e+02 8.481494e-14 7.524661e+03) (1.670585e+01 2.781809e-19 1.024679e+00)) ((-2.782856e-13 -2.516400e+03 4.613242e-14) (-2.036654e-18 1.634284e+01 1.273615e-17))
0.00111507    	((9.235348e+02 5.536082e-14 5.079556e+03) (1.705128e+01 -1.885473e-19 1.071929e+00)) ((-2.026171e-13 -1.062062e+03 2.968678e-14) (-2.141360e-18 1.668920e+01 1.830452e-17))
0.00126861    	((8.546934e+02 5.554231e-14 5.276995e+03) (1.739149e+01 -1.334914e-18 1.118733e+00)) ((-2.035287e-13 -1.313229e+03 2.931541e-14) (-3.438417e-18 1.701746e+01 3.033809e-17))
0.00141495    	((8.195699e+02 6.277796e-14 6.013831e+03) (1.766512e+01 -2.256880e-19 1.126808e+00)) ((-2.385438e-13 -2.013110e+03 3.079057e-14) (-6.395347e-18 1.731326e+01 4.895152e-17))
0.00155791    	((9.284722e+02 4.998794e-14 4.576272e+03) (1.795127e+01 -3.824806e-19 1.149433e+00)) ((-1.904727e-13 -9.300765e+02 2.669220e-14) (-9.708719e-18 1.759527e+01 5.554668e-17))
0.00169869    	((9.176814e+02 4.177686e-14 5.126850e+03) (1.819847e+01 -5.568270e-19 1.178607e+00)) ((-2.380790e-13 -1.543337e+03 1.021741e-14) (-1.109497e-17 1.783537e+01 4.970756e-17))
0.00183629    	((9.547745e+02 4.053021e-14 5.481042e+03) (1.843959e+01 3.130429e-19 1.166466e+00)) ((-2.494209e-13 -1.714558e+03 7.422289e-15) (-4.691895e-18 1.809794e+01 3.321079e-17))
0.00196985    	((1.350858e+03 5.364587e-14 4.329551e+03) (1.867709e+01 3.196359e-19 1.182383e+00)) ((-2.314130e-13 -6.788259e+02 2.692070e-14) (1.410312e-18 1.833077e+01 2.071903e-17))
0.00210854    	((1.658472e+03 5.625685e-14 4.405298e+03) (1.895393e+01 -9.805520e-19 1.214854e+00)) ((-2.487416e-13 -5.698498e+02 2.856400e-14) (1.537081e-17 1.857867e+01 5.143793e-18))
0.00225167    	((4.833343e+03 9.487603e-14 8.400630e+03) (1.943187e+01 1.511724e-19 1.107770e+00)) ((-5.063487e-13 -1.174442e+03 4.154252e-14) (6.179971e-18 1.910574e+01 -3.735226e-19))
0.00238716    	((4.408528e+02 3.196440e-14 2.748358e+03) (1.971310e+01 1.107698e-18 1.134586e+00)) ((-1.393846e-13 -7.075485e+02 1.709038e-14) (4.531527e-18 1.937859e+01 9.238221e-18))
0.0025186     	((3.123960e+02 3.404443e-14 3.364404e+03) (1.997592e+01 1.444030e-18 1.186632e+00)) ((-1.240538e-13 -9.312645e+02 1.811042e-14) (9.089513e-19 1.961762e+01 1.340770e-17))
0.00264713    	((2.112820e+02 4.034978e-14 4.547255e+03) (2.020182e+01 9.787126e-19 1.196909e+00)) ((-1.611108e-13 -1.934777e+03 1.783242e-14) (-1.040403e-18 1.985580e+01 1.977616e-17))
0.00277198    	((1.693743e+02 3.902079e-14 4.712449e+03) (2.042140e+01 1.839883e-18 1.214134e+00)) ((-1.539135e-13 -2.113563e+03 1.677112e-14) (-2.645449e-18 2.008942e+01 2.203699e-17))
0.00287767    	((1.967077e+01 2.396456e-14 6.952291e+03) (2.066885e+01 2.438440e-18 1.260453e+00)) ((-1.304013e-13 -3.919877e+03 3.720799e-16) (-2.736875e-18 2.032496e+01 1.586759e-17))
0.0029802     	((2.103696e+02 4.127784e-14 4.862611e+03) (2.097352e+01 1.558538e-18 1.334708e+00)) ((-1.489876e-13 -2.193187e+03 2.014929e-14) (-4.383430e-19 2.057558e+01 1.041577e-17))
0.00308724    	((-1.901886e+02 4.967984e-14 1.104280e+04) (2.134000e+01 1.652120e-19 1.280528e+00)) ((-2.485980e-13 -7.704548e+03 6.295484e-15) (8.775678e-19 2.102211e+01 -5.001700e-19))
0.00316342    	((7.544365e+02 3.772853e-14 2.088766e+02) (2.171988e+01 5.249598e-19 1.285503e+00)) ((-1.714232e-13 -2.285452e+01 1.867195e-14) (-4.690922e-20 2.141180e+01 -1.584018e-17))
0.0032421     	((2.477762e+02 3.946517e-14 3.530108e+03) (2.210999e+01 4.661207e-19 1.265877e+00)) ((-1.268754e-13 -1.168806e+03 2.239073e-14) (-8.582094e-19 2.181635e+01 -2.518698e-17))
0.00331496    	((2.397997e+02 5.227555e-14 4.322593e+03) (2.247711e+01 4.232383e-19 1.241036e+00)) ((-1.489230e-13 -1.632007e+03 3.110597e-14) (-2.090564e-18 2.219458e+01 -3.187068e-17))
0.00339185    	((1.582545e+02 8.354469e-14 6.714344e+03) (2.283361e+01 4.352339e-19 1.216670e+00)) ((-2.125932e-13 -3.108991e+03 5.023371e-14) (-3.032830e-18 2.255803e+01 -3.483583e-17))
0.00347407    	((2.787745e+02 2.860697e-14 2.836307e+03) (2.321618e+01 4.396252e-19 1.230749e+00)) ((-1.583857e-13 -1.026134e+03 1.057668e-14) (9.166038e-19 2.292594e+01 -3.458293e-17))
0.00355276    	((3.811757e+02 1.913259e-14 2.377251e+03) (2.391144e+01 8.743579e-19 1.242018e+00)) ((-1.540399e-13 -8.853662e+02 2.650051e-15) (1.916617e-18 2.358850e+01 -2.989373e-17))
0.00363711    	((2.641708e+02 2.143504e-14 1.915423e+03) (2.472078e+01 8.023725e-19 1.270027e+00)) ((-1.046902e-13 -5.691667e+02 8.595554e-15) (5.109717e-18 2.434013e+01 -2.592970e-17))
0.00371771    	((1.377622e+02 1.168758e-14 2.895154e+03) (2.560510e+01 1.064104e-18 1.282508e+00)) ((-7.848098e-14 -1.298644e+03 6.851671e-16) (2.256834e-18 2.517392e+01 -1.792921e-17))
0.00380036    	((-6.645357e+00 2.147330e-14 4.452560e+03) (2.664745e+01 1.713325e-18 1.322458e+00)) ((-1.233568e-13 -2.536969e+03 2.385013e-15) (9.226663e-19 2.614178e+01 -3.965249e-18))
0.00387714    	((-1.141403e+02 2.713553e-14 5.345591e+03) (2.748445e+01 1.337891e-18 1.370836e+00)) ((-1.716179e-13 -3.709518e+03 2.062424e-15) (1.919054e-18 2.691640e+01 6.880248e-18))
0.00395178    	((3.167196e+02 1.464797e-14 8.231173e+02) (2.814554e+01 1.225257e-18 1.402271e+00)) ((-9.904434e-14 -5.638846e+01 6.054644e-15) (1.945033e-18 2.752478e+01 1.673499e-17))
0.00403007    	((4.714297e+02 1.551508e-14 4.494598e+02) (2.870846e+01 1.348608e-18 1.432437e+00)) ((-1.086866e-13 7.076662e+01 7.320461e-15) (1.420877e-18 2.804084e+01 2.669171e-17))
0.00410835    	((1.726628e+02 2.195734e-14 1.911846e+03) (2.915345e+01 1.691487e-18 1.448788e+00)) ((-8.782926e-14 -5.395781e+02 1.187779e-14) (5.228186e-19 2.844476e+01 3.659034e-17))
0.00418702    	((1.876250e+02 2.307388e-14 1.988691e+03) (2.951201e+01 1.749133e-18 1.461628e+00)) ((-9.336841e-14 -5.609098e+02 1.240441e-14) (5.484617e-19 2.877064e+01 4.563744e-17))
0.00426811    	((1.684886e+02 3.152881e-14 1.745709e+03) (2.982523e+01 1.304549e-18 1.496493e+00)) ((-1.212035e-13 -5.719679e+02 1.441406e-14) (2.561890e-18 2.905300e+01 6.244664e-17))
0.00435135    	((1.463736e+02 2.487736e-14 2.127602e+03) (3.005340e+01 9.874446e-19 1.503868e+00)) ((-1.091934e-13 -7.825019e+02 1.211516e-14) (2.748651e-18 2.926280e+01 7.199310e-17))
0.00443594    	((8.656604e+01 2.248055e-14 3.072118e+03) (3.022941e+01 1.185737e-18 1.510209e+00)) ((-1.170243e-13 -1.433789e+03 6.171916e-15) (3.611971e-18 2.941917e+01 7.803518e-17))
0.00452193    	((7.166270e+01 1.950429e-14 2.916973e+03) (3.035336e+01 1.412896e-18 1.519953e+00)) ((-1.025104e-13 -1.455805e+03 4.955311e-15) (3.816895e-18 2.952428e+01 8.391555e-17))
0.0046084     	((-2.623822e+02 5.064752e-14 8.275570e+03) (3.042973e+01 1.291800e-18 1.499300e+00)) ((-1.905862e-13 -5.274480e+03 1.656641e-14) (4.345059e-18 2.961116e+01 8.855055e-17))
0.0046824     	((2.152218e+02 1.480913e-14 1.005679e+03) (3.046436e+01 1.364747e-18 1.494012e+00)) ((-8.844010e-14 -1.920749e+02 6.791114e-15) (4.759978e-18 2.964570e+01 9.163958e-17))
0.00475823    	((2.056653e+02 1.993124e-14 1.067651e+03) (3.050731e+01 9.511657e-19 1.506153e+00)) ((-7.995729e-14 -2.290177e+02 8.368450e-15) (3.589229e-18 2.968585e+01 9.625748e-17))
0.00483679    	((1.856213e+02 1.885593e-14 1.337483e+03) (3.049359e+01 8.907910e-19 1.511872e+00)) ((-9.028971e-14 -3.708897e+02 8.041933e-15) (3.319202e-18 2.966888e+01 9.778464e-17))
0.00491618    	((1.809452e+02 2.104585e-14 1.909610e+03) (3.044509e+01 1.032324e-18 1.522088e+00)) ((-1.024307e-13 -7.601014e+02 9.145612e-15) (2.771724e-18 2.961445e+01 9.795070e-17))
0.00499557    	((1.359753e+02 2.373918e-14 2.835332e+03) (3.037391e+01 7.673592e-19 1.519314e+00)) ((-1.107815e-13 -1.320728e+03 9.267026e-15) (3.210547e-18 2.954876e+01 9.790428e-17))
0.00507496    	((2.057858e+01 2.232759e-14 3.642068e+03) (3.031117e+01 7.907019e-19 1.521422e+00)) ((-1.099916e-13 -2.047069e+03 6.504719e-15) (3.261681e-18 2.948893e+01 9.832155e-17))
0.00515351    	((1.401746e+02 2.112234e-14 2.441625e+03) (3.031884e+01 7.185988e-19 1.522478e+00)) ((-9.882314e-14 -1.038923e+03 8.704332e-15) (3.683770e-18 2.950394e+01 9.766643e-17))
0.00523165    	((1.223046e+02 2.346146e-14 2.684397e+03) (3.038376e+01 6.080095e-19 1.524043e+00)) ((-1.026854e-13 -1.190007e+03 1.004507e-14) (4.256429e-18 2.958052e+01 9.587207e-17))
0.00530979    	((1.280167e+02 1.824423e-14 2.098069e+03) (3.051062e+01 4.699455e-19 1.510180e+00)) ((-8.900104e-14 -8.326894e+02 7.447106e-15) (4.244610e-18 2.972999e+01 9.246624e-17))
0.00538793    	((1.374147e+02 1.852866e-14 2.117810e+03) (3.069613e+01 3.426332e-19 1.462461e+00)) ((-8.986269e-14 -8.314119e+02 7.683188e-15) (3.854825e-18 2.995582e+01 8.816040e-17))
0.00546691    	((1.401454e+02 1.754988e-14 1.975058e+03) (3.091945e+01 8.847590e-20 1.379992e+00)) ((-8.733763e-14 -7.592297e+02 7.267778e-15) (2.464706e-18 3.023667e+01 8.199716e-17))
0.00554677    	((1.713006e+02 1.806751e-14 1.972805e+03) (3.113743e+01 2.543418e-21 1.265360e+00)) ((-8.994961e-14 -7.443453e+02 7.531731e-15) (-9.418321e-19 3.052629e+01 7.490303e-17))
0.00562283    	((3.728589e+02 1.685026e-14 5.620523e+02) (3.137618e+01 -7.798110e-20 1.152983e+00)) ((-1.051558e-13 -3.087323e+02 6.759190e-15) (-6.315333e-18 3.083809e+01 6.472702e-17))
0.00570097    	((3.089691e+02 2.300310e-14 2.321902e+03) (3.157119e+01 2.515599e-19 9.762427e-01)) ((-1.098210e-13 -8.800219e+02 9.608950e-15) (-1.301886e-17 3.112866e+01 5.776888e-17))
0.0057813     	((9.142293e+01 2.518180e-14 2.899909e+03) (3.179479e+01 3.858038e-19 7.308553e-01)) ((-1.051434e-13 -1.324392e+03 1.104373e-14) (-1.964994e-17 3.147716e+01 5.091070e-17))
0.00586397    	((1.517224e+02 1.564396e-14 1.672637e+03) (3.205684e+01 5.776723e-19 4.190720e-01)) ((-8.405548e-14 -5.923358e+02 6.337903e-15) (-2.716343e-17 3.189349e+01 4.289751e-17))
0.00595123    	((1.443472e+02 1.548130e-14 1.699291e+03) (3.237735e+01 7.315893e-19 4.551643e-03)) ((-8.286882e-14 -6.001130e+02 6.255756e-15) (-3.671687e-17 3.241354e+01 3.323771e-17))
0.00603742    	((1.416971e+02 1.604769e-14 1.789062e+03) (3.273856e+01 1.290861e-18 -4.804304e-01)) ((-8.320604e-14 -6.348574e+02 6.609333e-15) (-4.890153e-17 3.300602e+01 2.266612e-17))
0.00611542    	((1.462006e+02 1.671455e-14 1.860433e+03) (3.312929e+01 2.190612e-18 -1.010415e+00)) ((-8.486724e-14 -6.664429e+02 6.992912e-15) (-6.272697e-17 3.364667e+01 1.196640e-17))
0.00619387    	((1.923091e+02 1.952633e-14 2.059581e+03) (3.356439e+01 3.990847e-18 -1.623617e+00)) ((-9.388833e-14 -7.047507e+02 8.577006e-15) (-7.892934e-17 3.436781e+01 1.661695e-18))
0.00628125    	((1.752683e+02 1.629339e-14 1.682724e+03) (3.403190e+01 7.672496e-18 -2.359560e+00)) ((-9.114080e-14 -6.260967e+02 6.668223e-15) (-9.822579e-17 3.517703e+01 -6.441506e-18))
0.0063721     	((2.093193e+02 1.698100e-14 1.602910e+03) (3.448204e+01 1.248543e-17 -3.169774e+00)) ((-9.574060e-14 -6.296196e+02 6.759471e-15) (-1.184831e-16 3.599972e+01 -1.173278e-17))
0.00645469    	((3.020333e+02 2.083872e-14 1.862114e+03) (3.488264e+01 1.602548e-17 -3.955229e+00)) ((-1.101320e-13 -6.741287e+02 9.102103e-15) (-1.351339e-16 3.675765e+01 -1.478550e-17))
0.00654621    	((4.359289e+02 2.461849e-14 2.062761e+03) (3.527868e+01 1.907189e-17 -4.818113e+00)) ((-1.302114e-13 -7.451144e+02 1.073706e-14) (-1.505207e-16 3.754385e+01 -1.558500e-17))
0.006639      	((3.182501e+03 8.224058e-14 8.633169e+02) (3.576399e+01 2.062943e-17 -5.673421e+00)) ((-4.260362e-13 5.208927e+02 3.646004e-14) (-1.613828e-16 3.841593e+01 -9.695587e-18))
0.00672807    	((1.436181e+02 2.019374e-14 2.202716e+03) (3.599393e+01 2.193176e-17 -6.469805e+00)) ((-9.376814e-14 -8.498109e+02 8.507484e-15) (-1.700586e-16 3.900356e+01 -6.737095e-18))
0.00682154    	((1.106772e+02 1.839262e-14 2.186204e+03) (3.614825e+01 2.324610e-17 -7.265239e+00)) ((-8.974368e-14 -9.155637e+02 7.326373e-15) (-1.770827e-16 3.951297e+01 -3.085329e-18))
0.00690881    	((1.162161e+02 1.742047e-14 2.020200e+03) (3.624338e+01 2.461895e-17 -7.979013e+00)) ((-8.669466e-14 -8.145236e+02 6.998144e-15) (-1.822530e-16 3.992602e+01 6.844920e-19))
0.00699219    	((1.161885e+02 1.679267e-14 1.922288e+03) (3.628855e+01 2.645713e-17 -8.624279e+00)) ((-8.483389e-14 -7.643177e+02 6.723937e-15) (-1.865921e-16 4.025757e+01 4.614065e-18))
0.00707505    	((1.130581e+02 1.633547e-14 1.863591e+03) (3.629201e+01 2.787192e-17 -9.224980e+00)) ((-8.355187e-14 -7.441455e+02 6.474774e-15) (-1.898085e-16 4.052710e+01 8.469653e-18))
0.00715898    	((1.077002e+02 1.657475e-14 1.897581e+03) (3.625850e+01 2.886736e-17 -9.794382e+00)) ((-8.398941e-14 -7.746459e+02 6.590413e-15) (-1.923574e-16 4.074562e+01 1.224021e-17))
0.00724458    	((1.048078e+02 1.643001e-14 1.875101e+03) (3.618842e+01 2.967253e-17 -1.033213e+01)) ((-8.346205e-14 -7.715937e+02 6.517803e-15) (-1.950001e-16 4.091335e+01 1.581065e-17))
0.00733255    	((1.094449e+02 1.503550e-14 1.708794e+03) (3.608855e+01 3.041762e-17 -1.084410e+01)) ((-8.012864e-14 -6.770263e+02 5.815227e-15) (-1.979075e-16 4.103967e+01 1.913798e-17))
0.00742176    	((1.088457e+02 1.480955e-14 1.683409e+03) (3.596903e+01 3.122769e-17 -1.132567e+01)) ((-7.953521e-14 -6.667446e+02 5.697337e-15) (-2.011454e-16 4.113254e+01 2.227432e-17))
0.00749531    	((1.116314e+02 1.484946e-14 1.683375e+03) (3.587005e+01 3.192025e-17 -1.171130e+01)) ((-7.963139e-14 -6.598633e+02 5.746118e-15) (-2.038903e-16 4.120331e+01 2.466914e-17))
0.00756975    	((1.093725e+02 1.455347e-14 1.640044e+03) (3.577054e+01 3.248841e-17 -1.208547e+01)) ((-7.871432e-14 -6.439003e+02 5.576250e-15) (-2.059016e-16 4.126671e+01 2.709572e-17))
0.00764508    	((1.022035e+02 2.901567e-14 1.065511e+03) (3.569472e+01 3.311646e-17 -1.240812e+01)) ((-7.618175e-14 -4.592313e+02 1.016622e-14) (-2.099244e-16 4.133556e+01 2.738894e-17))
0.00772182    	((1.080917e+02 1.613478e-14 1.440496e+03) (3.556740e+01 3.387649e-17 -1.272558e+01)) ((-7.543104e-14 -5.767869e+02 5.992787e-15) (-2.134067e-16 4.134687e+01 2.913446e-17))
0.00780053    	((1.081709e+02 1.453958e-14 1.534831e+03) (3.542341e+01 3.460949e-17 -1.303345e+01)) ((-7.784149e-14 -6.049065e+02 5.465872e-15) (-2.166856e-16 4.133726e+01 3.081901e-17))
0.00788132    	((1.086446e+02 1.423954e-14 1.566537e+03) (3.526828e+01 3.520881e-17 -1.333736e+01)) ((-7.881605e-14 -6.138250e+02 5.367819e-15) (-2.192576e-16 4.131628e+01 3.241235e-17))
0.00796432    	((1.088847e+02 1.395856e-14 1.541151e+03) (3.510712e+01 3.551743e-17 -1.363846e+01)) ((-7.729510e-14 -5.986682e+02 5.252222e-15) (-2.213857e-16 4.129006e+01 3.396127e-17))
0.00804968    	((1.085403e+02 1.384175e-14 1.515682e+03) (3.493726e+01 3.552938e-17 -1.393947e+01)) ((-7.638232e-14 -5.884144e+02 5.190899e-15) (-2.240067e-16 4.126176e+01 3.500811e-17))
0.00813755    	((1.086012e+02 1.371342e-14 1.515221e+03) (3.475945e+01 3.523287e-17 -1.424591e+01)) ((-7.626396e-14 -5.869638e+02 5.136537e-15) (-2.266368e-16 4.123421e+01 3.537825e-17))
0.00822608    	((1.078514e+02 1.363376e-14 1.516110e+03) (3.458211e+01 3.472526e-17 -1.454242e+01)) ((-7.602032e-14 -5.883177e+02 5.107728e-15) (-2.293141e-16 4.120772e+01 3.553546e-17))
0.00830563    	((7.216807e+01 2.063159e-14 2.360213e+03) (3.441072e+01 3.396468e-17 -1.480906e+01)) ((-9.226254e-14 -1.104926e+03 8.605973e-15) (-2.320194e-16 4.117761e+01 3.493706e-17))
0.00838412    	((1.098762e+02 1.329933e-14 1.485796e+03) (3.424115e+01 3.340471e-17 -1.507420e+01)) ((-7.533402e-14 -5.669081e+02 4.954081e-15) (-2.349310e-16 4.115120e+01 3.420525e-17))
0.00846314    	((1.084297e+02 1.336697e-14 1.494308e+03) (3.408481e+01 3.319252e-17 -1.533468e+01)) ((-7.549056e-14 -5.749447e+02 4.989159e-15) (-2.381556e-16 4.113739e+01 3.343510e-17))
0.00854325    	((1.085184e+02 1.356421e-14 1.512863e+03) (3.392831e+01 3.298903e-17 -1.557636e+01)) ((-7.588809e-14 -5.840995e+02 5.109653e-15) (-2.410180e-16 4.111285e+01 3.218603e-17))
0.00862394    	((1.104233e+02 1.337682e-14 1.488765e+03) (3.376301e+01 3.288850e-17 -1.579829e+01)) ((-7.544974e-14 -5.671478e+02 5.032983e-15) (-2.433893e-16 4.106646e+01 3.098194e-17))
0.00870637    	((1.089709e+02 1.317704e-14 1.455676e+03) (3.359312e+01 3.278756e-17 -1.600966e+01)) ((-7.480480e-14 -5.534643e+02 4.928967e-15) (-2.450314e-16 4.100493e+01 2.971765e-17))
0.00879065    	((1.024164e+02 1.512931e-14 1.565503e+03) (3.343631e+01 3.255290e-17 -1.622332e+01)) ((-7.871503e-14 -6.301127e+02 5.796702e-15) (-2.457156e-16 4.095142e+01 2.838310e-17))
0.00887622    	((1.025964e+02 1.986003e-14 1.215829e+03) (3.332385e+01 3.179156e-17 -1.637322e+01)) ((-8.441200e-14 -4.857512e+02 7.387774e-15) (-2.450769e-16 4.091706e+01 2.904271e-17))
0.00896381    	((1.106532e+02 1.619788e-14 1.307588e+03) (3.314830e+01 3.075644e-17 -1.653100e+01)) ((-7.813401e-14 -5.124857e+02 6.044108e-15) (-2.447980e-16 4.081743e+01 2.757123e-17))
0.00905353    	((1.095288e+02 1.364178e-14 1.413268e+03) (3.295772e+01 2.932016e-17 -1.668207e+01)) ((-7.624564e-14 -5.404700e+02 5.089621e-15) (-2.427823e-16 4.069758e+01 2.422919e-17))
0.00911435    	((1.090756e+02 1.331799e-14 1.458277e+03) (3.281410e+01 2.799985e-17 -1.680487e+01)) ((-7.523006e-14 -5.559151e+02 5.005392e-15) (-2.422846e-16 4.062400e+01 2.286534e-17))
0.00917516    	((1.077373e+02 1.335266e-14 1.469596e+03) (3.266171e+01 2.654697e-17 -1.690760e+01)) ((-7.534455e-14 -5.658326e+02 5.004919e-15) (-2.408105e-16 4.052764e+01 2.177179e-17))
0.00923632    	((1.083974e+02 1.343490e-14 1.489144e+03) (3.249765e+01 2.516872e-17 -1.699176e+01)) ((-7.560776e-14 -5.741169e+02 5.067622e-15) (-2.390476e-16 4.040880e+01 2.094122e-17))
0.00929782    	((8.607579e+01 1.847467e-14 2.087922e+03) (3.232104e+01 2.380990e-17 -1.705751e+01)) ((-8.734103e-14 -9.339034e+02 7.583202e-15) (-2.372574e-16 4.026793e+01 2.002925e-17))
0.00935969    	((1.067848e+02 1.369646e-14 1.491800e+03) (3.213167e+01 2.286094e-17 -1.711179e+01)) ((-7.601694e-14 -5.811104e+02 5.188739e-15) (-2.367542e-16 4.010872e+01 1.862237e-17))
0.00942228    	((1.072795e+02 1.354750e-14 1.500432e+03) (3.193707e+01 2.199129e-17 -1.715570e+01)) ((-7.578014e-14 -5.821717e+02 5.145738e-15) (-2.360146e-16 3.993868e+01 1.543348e-17))
0.00948562    	((1.096337e+02 1.358709e-14 1.510076e+03) (3.174050e+01 2.148059e-17 -1.718882e+01)) ((-7.593523e-14 -5.817117e+02 5.189374e-15) (-2.341063e-16 3.976026e+01 1.173491e-17))
0.00954973    	((1.085218e+02 1.349782e-14 1.499381e+03) (3.153830e+01 2.092931e-17 -1.721483e+01)) ((-7.566136e-14 -5.788203e+02 5.140851e-15) (-2.304850e-16 3.957138e+01 9.603969e-18))
0.00961545    	((1.107959e+02 1.367583e-14 1.518957e+03) (3.133631e+01 2.062080e-17 -1.725617e+01)) ((-7.607594e-14 -5.825415e+02 5.244543e-15) (-2.252651e-16 3.938666e+01 8.793355e-18))
0.00968289    	((1.087982e+02 1.348519e-14 1.496266e+03) (3.114753e+01 2.024996e-17 -1.731688e+01)) ((-7.560106e-14 -5.755161e+02 5.138046e-15) (-2.202226e-16 3.922310e+01 7.698100e-18))
0.0097526     	((1.128351e+02 1.387876e-14 1.543955e+03) (3.096376e+01 2.020430e-17 -1.737569e+01)) ((-7.666665e-14 -5.894213e+02 5.367985e-15) (-2.139440e-16 3.906223e+01 6.961201e-18))
0.00982476    	((1.093866e+02 1.332798e-14 1.471585e+03) (3.077919e+01 2.023184e-17 -1.743199e+01)) ((-7.516311e-14 -5.610382e+02 5.066011e-15) (-2.071092e-16 3.889861e+01 7.065769e-18))
0.00989958    	((1.100410e+02 1.353731e-14 1.494736e+03) (3.058726e+01 2.029103e-17 -1.747783e+01)) ((-7.568681e-14 -5.721897e+02 5.175953e-15) (-1.991947e-16 3.872152e+01 8.822603e-18))
0.00997788    	((1.110466e+02 1.338750e-14 1.476083e+03) (3.038938e+01 2.028267e-17 -1.751759e+01)) ((-7.530247e-14 -5.591898e+02 5.112561e-15) (-1.911183e-16 3.853496e+01 1.092766e-17))
0.0100594     	((1.107392e+02 1.326990e-14 1.460805e+03) (3.018265e+01 2.022063e-17 -1.755071e+01)) ((-7.497243e-14 -5.521924e+02 5.055763e-15) (-1.828247e-16 3.833608e+01 1.403561e-17))
0.0101429     	((1.106915e+02 1.324019e-14 1.455292e+03) (2.998842e+01 1.996809e-17 -1.759727e+01)) ((-7.489109e-14 -5.494686e+02 5.043603e-15) (-1.762546e-16 3.815905e+01 1.679249e-17))
0.0102286     	((1.106678e+02 1.348095e-14 1.485920e+03) (2.984499e+01 1.976134e-17 -1.764677e+01)) ((-7.551712e-14 -5.654333e+02 5.166858e-15) (-1.705346e-16 3.803822e+01 1.278475e-17))
0.0103166     	((1.182929e+02 1.403482e-14 1.551202e+03) (2.970493e+01 1.969432e-17 -1.767636e+01)) ((-7.702794e-14 -5.804351e+02 5.506217e-15) (-1.632702e-16 3.791137e+01 9.127707e-18))
0.0104047     	((1.228126e+02 1.415336e-14 1.558598e+03) (2.955100e+01 1.955794e-17 -1.769949e+01)) ((-7.739602e-14 -5.744187e+02 5.602761e-15) (-1.557233e-16 3.776817e+01 8.116546e-18))
0.0104927     	((1.133226e+02 1.340641e-14 1.460259e+03) (2.939066e+01 1.934953e-17 -1.772061e+01)) ((-7.532514e-14 -5.459094e+02 5.154360e-15) (-1.480251e-16 3.761784e+01 9.128034e-18))
0.0105807     	((1.420758e+02 1.621567e-14 1.818859e+03) (2.925484e+01 1.886204e-17 -1.775173e+01)) ((-8.301556e-14 -6.600000e+02 6.791599e-15) (-1.404761e-16 3.750344e+01 1.018806e-17))
0.0106688     	((1.100631e+02 1.226055e-14 1.326246e+03) (2.913412e+01 1.821239e-17 -1.778812e+01)) ((-7.271474e-14 -5.070687e+02 4.695510e-15) (-1.324225e-16 3.740859e+01 1.062763e-17))
0.0107278     	((1.140667e+02 1.693235e-14 1.144137e+03) (2.903542e+01 1.717488e-17 -1.781782e+01)) ((-7.551237e-14 -4.452640e+02 6.335759e-15) (-1.266326e-16 3.733743e+01 1.211371e-17))
0.0107873     	((1.300250e+02 1.550875e-14 1.598675e+03) (2.853578e+01 1.484026e-17 -1.793364e+01)) ((-7.981783e-14 -5.875320e+02 6.248416e-15) (-1.248213e-16 3.695160e+01 3.898822e-17))
0.0108471     	((1.344719e+02 1.551333e-14 1.639221e+03) (2.825757e+01 1.478008e-17 -1.823743e+01)) ((-8.062208e-14 -5.970468e+02 6.331735e-15) (-1.376290e-16 3.697703e+01 5.342010e-17))
0.0109073     	((1.614926e+02 1.814469e-14 1.867668e+03) (2.808351e+01 1.461582e-17 -1.842371e+01)) ((-8.704281e-14 -6.616863e+02 7.787348e-15) (-1.425308e-16 3.699295e+01 6.185313e-17))
0.0109679     	((1.668478e+02 1.928104e-14 2.040365e+03) (2.795752e+01 1.336231e-17 -1.851631e+01)) ((-9.039559e-14 -7.318901e+02 8.413351e-15) (-1.405580e-16 3.696365e+01 6.478188e-17))
0.0110294     	((3.924657e+02 4.119004e-14 3.880333e+03) (2.787579e+01 1.144836e-17 -1.857695e+01)) ((-1.434064e-13 -1.255777e+03 2.026496e-14) (-1.365345e-16 3.694586e+01 6.427883e-17))
0.0110917     	((1.086951e+02 1.468861e-14 1.610885e+03) (2.779169e+01 1.028570e-17 -1.866804e+01)) ((-7.936036e-14 -6.237968e+02 5.776677e-15) (-1.358894e-16 3.694837e+01 6.343124e-17))
0.0111548     	((1.138888e+02 1.447806e-14 1.592305e+03) (2.773194e+01 9.265373e-18 -1.879916e+01)) ((-7.893089e-14 -6.093923e+02 5.650828e-15) (-1.387051e-16 3.699547e+01 6.088874e-17))
0.0112194     	((1.190561e+02 1.456701e-14 1.605755e+03) (2.769284e+01 8.155375e-18 -1.896221e+01)) ((-7.902837e-14 -6.056931e+02 5.780011e-15) (-1.445084e-16 3.707824e+01 5.581281e-17))
0.0112859     	((1.113273e+02 1.458344e-14 1.504175e+03) (2.767716e+01 6.808235e-18 -1.915509e+01)) ((-7.870186e-14 -5.818203e+02 5.598410e-15) (-1.528893e-16 3.720362e+01 4.800932e-17))
0.011354      	((1.101375e+02 1.396902e-14 1.456531e+03) (2.767179e+01 4.230945e-18 -1.937356e+01)) ((-7.699724e-14 -5.586465e+02 5.312559e-15) (-1.623160e-16 3.735707e+01 3.751596e-17))
0.0114237     	((1.094216e+02 1.339168e-14 1.446162e+03) (2.766681e+01 9.180328e-19 -1.960934e+01)) ((-7.552379e-14 -5.502623e+02 5.097777e-15) (-1.729545e-16 3.752294e+01 2.563449e-17))
0.0114958     	((1.096370e+02 1.316079e-14 1.432038e+03) (2.768452e+01 -2.502888e-18 -1.986128e+01)) ((-7.490820e-14 -5.417294e+02 5.018189e-15) (-1.851850e-16 3.772351e+01 1.393260e-17))
0.0115704     	((1.074412e+02 1.296244e-14 1.411839e+03) (2.769600e+01 -5.629994e-18 -2.012175e+01)) ((-7.439910e-14 -5.354248e+02 4.904587e-15) (-1.994086e-16 3.792291e+01 1.561259e-18))
0.0116457     	((1.061252e+02 1.298791e-14 1.418642e+03) (2.768770e+01 -8.428334e-18 -2.037622e+01)) ((-7.446506e-14 -5.427433e+02 4.905415e-15) (-2.142735e-16 3.809739e+01 -9.529735e-18))
0.0117177     	((1.061270e+02 1.298575e-14 1.418810e+03) (2.768436e+01 -1.069758e-17 -2.061369e+01)) ((-7.445872e-14 -5.432347e+02 4.903290e-15) (-2.291859e-16 3.826436e+01 -2.025563e-17))
0.0117873     	((1.038089e+02 1.294877e-14 1.424016e+03) (2.768129e+01 -1.307546e-17 -2.083600e+01)) ((-7.446098e-14 -5.533400e+02 4.843331e-15) (-2.435901e-16 3.842015e+01 -2.914901e-17))
0.0118557     	((9.986856e+01 1.307476e-14 1.466586e+03) (2.766979e+01 -1.525894e-17 -2.103636e+01)) ((-7.508192e-14 -5.893173e+02 4.805820e-15) (-2.567266e-16 3.855206e+01 -3.721071e-17))
0.0119236     	((1.026757e+02 1.313420e-14 1.443149e+03) (2.766158e+01 -1.722536e-17 -2.121847e+01)) ((-7.496927e-14 -5.681276e+02 4.893027e-15) (-2.689934e-16 3.867473e+01 -4.388707e-17))
0.0119914     	((1.034934e+02 1.290473e-14 1.407246e+03) (2.765630e+01 -1.899814e-17 -2.138341e+01)) ((-7.423960e-14 -5.474970e+02 4.792897e-15) (-2.805967e-16 3.878865e+01 -4.997657e-17))
0.0120593     	((1.034220e+02 1.293460e-14 1.426672e+03) (2.763714e+01 -2.054076e-17 -2.152997e+01)) ((-7.446605e-14 -5.584725e+02 4.788797e-15) (-2.916330e-16 3.887531e+01 -5.464596e-17))
0.0121278     	((1.001112e+02 1.310469e-14 1.474247e+03) (2.761604e+01 -2.185926e-17 -2.166087e+01)) ((-7.514482e-14 -5.935799e+02 4.797858e-15) (-3.018678e-16 3.894890e+01 -5.754052e-17))
0.0121968     	((1.018140e+02 1.280855e-14 1.415321e+03) (2.758049e+01 -2.318145e-17 -2.176973e+01)) ((-7.408556e-14 -5.561670e+02 4.712321e-15) (-3.100880e-16 3.899212e+01 -6.076130e-17))
0.0122671     	((1.011162e+02 1.286509e-14 1.433845e+03) (2.752886e+01 -2.385058e-17 -2.185987e+01)) ((-7.434254e-14 -5.687913e+02 4.707901e-15) (-3.169174e-16 3.900586e+01 -6.228742e-17))
0.0123381     	((9.783089e+01 1.313415e-14 1.486876e+03) (2.747055e+01 -2.429644e-17 -2.193417e+01)) ((-7.533124e-14 -6.070878e+02 4.776757e-15) (-3.221241e-16 3.900290e+01 -6.365230e-17))
0.0124104     	((9.645334e+01 1.301552e-14 1.418534e+03) (2.742927e+01 -2.436297e-17 -2.199254e+01)) ((-7.984922e-14 -5.803338e+02 4.951567e-15) (-3.258167e-16 3.900707e+01 -6.372545e-17))
0.0124683     	((9.793685e+01 1.243407e-14 1.308316e+03) (2.738906e+01 -2.416971e-17 -2.201950e+01)) ((-7.966935e-14 -5.202371e+02 4.760682e-15) (-3.276970e-16 3.898928e+01 -6.227832e-17))
0.0125267     	((1.026705e+02 1.291870e-14 1.411917e+03) (2.732601e+01 -2.406757e-17 -2.202933e+01)) ((-7.445762e-14 -5.540978e+02 4.789166e-15) (-3.282714e-16 3.893636e+01 -6.163238e-17))
0.012586      	((9.926177e+01 1.178558e-14 1.362129e+03) (2.724340e+01 -2.404699e-17 -2.201868e+01)) ((-7.278901e-14 -5.448141e+02 4.362747e-15) (-3.276727e-16 3.885109e+01 -6.135482e-17))
0.0126458     	((1.003871e+02 1.281079e-14 1.406940e+03) (2.716000e+01 -2.408105e-17 -2.200555e+01)) ((-7.404761e-14 -5.562756e+02 4.711862e-15) (-3.252916e-16 3.876083e+01 -6.069628e-17))
0.0127061     	((1.015017e+02 1.282761e-14 1.401477e+03) (2.707118e+01 -2.424803e-17 -2.198585e+01)) ((-7.394722e-14 -5.500243e+02 4.718375e-15) (-3.208589e-16 3.865865e+01 -6.055221e-17))