# Forces      
# CofR        : (0.000000e+00 0.000000e+00 -1.000000e+00)
# Time        forces(pressure viscous)	moments(pressure viscous)
0             	((0.000000e+00 6.445847e-15 -6.821210e-13) (1.482143e+01 4.350376e-18 2.222610e+00)) ((-1.025239e-13 1.136868e-13 -3.521632e-15) (-5.022278e-18 1.376367e+01 1.086791e-17))
1.19976e-05   	((1.939887e+05 1.097661e-11 1.254607e+06) (1.502270e+01 3.247410e-18 1.946290e+00)) ((-3.140066e-11 -2.321833e+05 6.229308e-12) (3.118309e-18 1.404267e+01 8.734819e-18))
2.63878e-05   	((2.370934e+04 1.971729e-12 2.091884e+05) (1.501947e+01 2.911019e-18 1.844294e+00)) ((-5.134284e-12 -5.182301e+04 1.175417e-12) (5.176777e-18 1.407230e+01 8.522660e-18))
4.36511e-05   	((1.389994e+04 1.184659e-12 1.240134e+05) (1.502936e+01 2.561535e-18 1.782337e+00)) ((-3.108769e-12 -3.125512e+04 6.973614e-13) (5.951819e-18 1.410569e+01 8.250068e-18))
6.43527e-05   	((9.556534e+03 8.364220e-13 8.611388e+04) (1.504450e+01 2.183754e-18 1.722460e+00)) ((-2.198604e-12 -2.226066e+04 4.891559e-13) (6.302188e-18 1.414811e+01 7.985156e-18))
8.91792e-05   	((6.832029e+03 6.068975e-13 6.188042e+04) (1.506618e+01 1.890531e-18 1.661731e+00)) ((-1.606967e-12 -1.630210e+04 3.524549e-13) (6.256780e-18 1.420179e+01 8.166429e-18))
0.000118941   	((4.862576e+03 4.837513e-13 5.016126e+04) (1.508832e+01 2.103048e-18 1.582673e+00)) ((-1.373653e-12 -1.563966e+04 2.645120e-13) (5.818421e-18 1.427239e+01 1.010581e-17))
0.000154634   	((3.849351e+03 3.563803e-13 3.588444e+04) (1.510933e+01 1.828831e-18 1.495716e+00)) ((-9.690401e-13 -1.005165e+04 2.034846e-13) (5.372298e-18 1.434469e+01 1.057331e-17))
0.000197405   	((3.122150e+03 2.719607e-13 2.715184e+04) (1.513133e+01 1.420493e-18 1.402424e+00)) ((-7.588535e-13 -7.466312e+03 1.552942e-13) (4.710036e-18 1.442527e+01 1.090533e-17))
0.000247411   	((2.560742e+03 2.205900e-13 2.200134e+04) (1.516561e+01 9.544080e-19 1.300357e+00)) ((-6.181547e-13 -5.939922e+03 1.253156e-13) (2.899329e-18 1.452130e+01 1.299066e-17))
0.000304499   	((2.140618e+03 1.831888e-13 1.828278e+04) (1.522658e+01 6.344717e-19 1.215629e+00)) ((-5.213150e-13 -4.909891e+03 1.035137e-13) (-1.269754e-18 1.463368e+01 1.822781e-17))
0.000368864   	((1.622653e+03 1.197611e-13 1.842718e+04) (1.531179e+01 9.939873e-19 1.128827e+00)) ((-6.088007e-13 -6.637095e+03 2.306507e-14) (-9.198523e-20 1.478265e+01 1.796699e-17))
0.00044025    	((1.597534e+03 1.244089e-13 1.387418e+04) (1.543223e+01 1.066781e-18 1.067379e+00)) ((-4.276890e-13 -3.979786e+03 5.952072e-14) (-1.513381e-18 1.495136e+01 1.709187e-17))
0.000510863   	((1.616389e+03 1.152235e-13 1.209031e+04) (1.557900e+01 1.338860e-18 1.045986e+00)) ((-4.003340e-13 -3.219747e+03 5.881275e-14) (-1.237332e-18 1.513126e+01 1.676162e-17))
0.000579729   	((1.392973e+03 1.067094e-13 1.116302e+04) (1.576374e+01 1.020413e-18 1.044139e+00)) ((-3.515876e-13 -2.989121e+03 5.498583e-14) (1.701718e-18 1.533376e+01 1.095382e-17))
0.000650606   	((1.500661e+03 9.577777e-14 1.044213e+04) (1.596176e+01 3.367710e-19 1.075727e+00)) ((-3.418508e-13 -2.736130e+03 5.017577e-14) (9.401944e-18 1.552763e+01 1.425993e-18))
0.000719958   	((9.254579e+02 4.662697e-14 1.379224e+04) (1.615933e+01 6.981206e-19 1.062324e+00)) ((-2.074471e-13 -5.874098e+03 5.509698e-15) (2.525906e-18 1.576540e+01 -9.706965e-18))
0.000793546   	((1.354055e+03 8.635734e-14 9.729453e+03) (1.638462e+01 6.399931e-19 1.077265e+00)) ((-2.964397e-13 -2.647351e+03 4.359703e-14) (2.321654e-18 1.600149e+01 -1.461221e-17))
0.000865212   	((1.189006e+03 7.227079e-14 7.987383e+03) (1.659811e+01 9.600174e-19 1.109324e+00)) ((-2.707228e-13 -2.141339e+03 3.790328e-14) (2.199367e-18 1.621795e+01 -1.811103e-17))
0.00093582    	((1.111063e+03 7.933284e-14 8.840183e+03) (1.682107e+01 1.434031e-18 1.139221e+00)) ((-2.814263e-13 -2.768489e+03 3.947332e-14) (1.967955e-18 1.644038e+01 -2.049627e-17))
0.000997919   	((1.152260e+03 7.467294e-14 8.236936e+03) (1.702581e+01 1.902263e-18 1.190101e+00)) ((-2.660133e-13 -2.306909e+03 3.744656e-14) (6.268197e-19 1.661522e+01 -2.133574e-17))
0.00106168    	((7.716471e+02 6.191339e-14 1.332970e+04) (1.720790e+01 1.312474e-18 1.176021e+00)) ((-3.189984e-13 -6.777740e+03 8.776112e-15) (2.389516e-18 1.683966e+01 -1.860488e-17))
0.00112357    	((1.202536e+03 7.419839e-14 8.255667e+03) (1.737253e+01 1.177731e-18 1.187402e+00)) ((-2.745687e-13 -2.493628e+03 3.620866e-14) (2.847210e-18 1.701313e+01 -2.010318e-17))
0.00118713    	((1.094960e+03 7.048702e-14 7.729564e+03) (1.753376e+01 1.530776e-18 1.197424e+00)) ((-2.607133e-13 -2.399744e+03 3.439777e-14) (2.683911e-18 1.718160e+01 -2.105697e-17))
0.001252      	((1.189958e+03 6.861359e-14 7.325725e+03) (1.769402e+01 2.293393e-18 1.211519e+00)) ((-2.598612e-13 -2.134630e+03 3.366645e-14) (1.968826e-18 1.733887e+01 -2.172153e-17))
0.00131577    	((1.299907e+03 6.961203e-14 6.769849e+03) (1.785631e+01 2.288907e-18 1.296028e+00)) ((-2.736570e-13 -1.874875e+03 3.361922e-14) (3.062681e-18 1.744080e+01 -2.291174e-17))
0.00138065    	((3.235877e+02 8.487321e-14 1.896957e+04) (1.799274e+01 9.433721e-19 1.239638e+00)) ((-3.870862e-13 -1.161463e+04 1.515074e-14) (4.008060e-18 1.764681e+01 -2.338796e-17))
0.00142839    	((1.827092e+03 6.380246e-14 6.002116e+03) (1.809323e+01 9.209890e-19 1.232942e+00)) ((-2.663616e-13 -6.327300e+02 3.304193e-14) (4.179421e-18 1.775911e+01 -2.396229e-17))
0.00147517    	((2.247540e+03 7.600936e-14 6.721750e+03) (1.819317e+01 9.378558e-19 1.218474e+00)) ((-3.066322e-13 -6.308089e+02 4.085886e-14) (4.321817e-18 1.787251e+01 -2.415203e-17))
0.0015247     	((2.837251e+03 9.630978e-14 6.700388e+03) (1.829673e+01 8.768574e-19 1.227089e+00)) ((-3.694589e-13 -5.225003e+02 5.469273e-14) (4.053172e-18 1.798437e+01 -2.344928e-17))
0.00157491    	((3.639146e+03 1.196064e-13 8.461729e+03) (1.841309e+01 7.253353e-19 1.217337e+00)) ((-4.552342e-13 -6.951365e+02 6.903231e-14) (4.072604e-18 1.811192e+01 -2.324865e-17))
0.0016274     	((1.214869e+04 2.740701e-13 1.542658e+04) (1.867744e+01 1.134274e-18 1.161998e+00)) ((-1.185076e-12 1.915137e+03 1.588964e-13) (3.645577e-18 1.839515e+01 -2.424786e-17))
0.00168208    	((6.216564e+02 7.825718e-14 6.932127e+03) (1.879314e+01 1.294382e-18 1.139706e+00)) ((-2.510055e-13 -2.471808e+03 4.201216e-14) (2.866857e-18 1.852546e+01 -2.358887e-17))
0.00173844    	((7.282635e+02 7.527937e-14 5.306176e+03) (1.888200e+01 6.342116e-19 1.159657e+00)) ((-2.448166e-13 -1.863992e+03 4.044501e-14) (2.854232e-18 1.861946e+01 -2.509247e-17))
0.00179716    	((4.687274e+02 7.088689e-14 7.848038e+03) (1.899105e+01 6.689181e-19 1.144675e+00)) ((-2.693654e-13 -3.190169e+03 2.993769e-14) (2.266415e-18 1.874114e+01 -2.793387e-17))
0.00185764    	((4.455703e+02 6.350399e-14 6.145218e+03) (1.908437e+01 3.867952e-19 1.140864e+00)) ((-2.191858e-13 -2.290638e+03 3.176517e-14) (2.723102e-18 1.884445e+01 -2.950447e-17))
0.00191712    	((4.609809e+02 6.871037e-14 6.246535e+03) (1.916355e+01 4.493708e-19 1.161260e+00)) ((-2.325628e-13 -2.427006e+03 3.527644e-14) (3.746506e-18 1.892383e+01 -2.928023e-17))
0.001977      	((3.967286e+02 3.913803e-14 6.107776e+03) (1.924930e+01 7.448927e-19 1.160843e+00)) ((-1.686067e-13 -2.825223e+03 1.316987e-14) (4.119222e-18 1.901640e+01 -3.020504e-17))
0.0020383     	((5.789250e+02 5.464738e-14 4.264292e+03) (1.934392e+01 9.202170e-19 1.131654e+00)) ((-2.125504e-13 -1.779839e+03 2.556856e-14) (4.914385e-18 1.913076e+01 -2.886622e-17))
0.00209939    	((6.481253e+02 4.621435e-14 3.942392e+03) (1.941515e+01 9.169137e-19 1.149257e+00)) ((-2.104588e-13 -1.864932e+03 2.349164e-14) (5.106581e-18 1.920665e+01 -2.274546e-17))
0.0021607     	((1.549146e+02 6.439525e-14 7.964707e+03) (1.949922e+01 1.507854e-18 1.137471e+00)) ((-2.131587e-13 -4.018420e+03 2.960004e-14) (5.230385e-18 1.930146e+01 -1.885328e-17))
0.00221919    	((-5.077973e+02 7.884381e-14 1.844349e+04) (1.960058e+01 1.699454e-18 1.133617e+00)) ((-3.441655e-13 -1.219305e+04 9.059788e-15) (4.873301e-18 1.940766e+01 -1.219447e-17))
0.00226537    	((4.543305e+02 1.037570e-13 1.183055e+04) (1.967126e+01 1.288101e-18 1.171325e+00)) ((-3.175224e-13 -6.110603e+03 5.056005e-14) (3.414045e-18 1.946722e+01 -1.221640e-17))
0.00230894    	((-1.963195e+02 1.252367e-13 1.635822e+04) (1.975015e+01 1.867953e-18 1.199730e+00)) ((-3.685744e-13 -9.520227e+03 5.559602e-14) (1.619967e-18 1.952764e+01 -1.180183e-17))
0.00235295    	((1.029792e+02 5.642771e-14 9.496977e+03) (1.980627e+01 1.051904e-18 1.174750e+00)) ((-2.315846e-13 -5.517467e+03 1.790804e-14) (2.339653e-18 1.961223e+01 -1.269432e-17))
0.00239324    	((5.069528e+02 3.826329e-14 3.866303e+03) (1.985117e+01 1.120807e-18 1.166308e+00)) ((-1.456448e-13 -1.220236e+03 2.032972e-14) (1.723115e-18 1.966463e+01 -1.385973e-17))
0.00243438    	((6.154828e+02 4.015938e-14 3.932508e+03) (1.990601e+01 1.224345e-18 1.170827e+00)) ((-1.694976e-13 -1.471805e+03 2.084268e-14) (1.035892e-18 1.972307e+01 -1.336769e-17))
0.00247671    	((6.196372e+02 4.095330e-14 3.841859e+03) (1.997395e+01 1.239720e-18 1.150895e+00)) ((-2.183357e-13 -2.195484e+03 1.547074e-14) (-8.347290e-20 1.980091e+01 -1.293492e-17))
0.00251924    	((5.479488e+02 4.702766e-14 4.636863e+03) (2.002991e+01 7.849224e-19 1.176716e+00)) ((-2.473722e-13 -2.836580e+03 1.891260e-14) (2.399725e-18 1.985691e+01 -1.263635e-17))
0.00256027    	((2.696686e+02 3.754253e-14 4.487848e+03) (2.007801e+01 5.004574e-19 1.174616e+00)) ((-1.479500e-13 -1.860775e+03 1.671784e-14) (3.100099e-18 1.991091e+01 -1.190185e-17))
0.00260355    	((3.044767e+02 3.633817e-14 4.248161e+03) (2.013367e+01 3.137437e-19 1.167007e+00)) ((-1.503320e-13 -1.796409e+03 1.596188e-14) (3.398210e-18 1.997408e+01 -1.096438e-17))
0.00264759    	((5.044841e+02 3.895124e-14 4.275729e+03) (2.019507e+01 1.535280e-19 1.157729e+00)) ((-1.653267e-13 -1.692143e+03 1.747375e-14) (3.502697e-18 2.004359e+01 -1.141897e-17))
0.00269231    	((2.608856e+02 3.434147e-14 4.097624e+03) (2.026195e+01 3.230889e-20 1.147684e+00)) ((-1.406055e-13 -1.716662e+03 1.502162e-14) (3.256734e-18 2.011962e+01 -1.302428e-17))
0.00273494    	((6.219408e+02 4.384157e-14 2.557373e+03) (2.033237e+01 9.623027e-19 1.159207e+00)) ((-1.709339e-13 -1.215947e+03 1.798261e-14) (1.012640e-18 2.019300e+01 -1.962525e-17))
0.00277876    	((4.779102e+02 3.849008e-14 3.320161e+03) (2.040606e+01 6.759915e-19 1.171892e+00)) ((-1.559169e-13 -1.411832e+03 1.637750e-14) (1.373783e-19 2.026988e+01 -2.631691e-17))
0.00282292    	((3.039789e+02 3.440973e-14 3.958971e+03) (2.048451e+01 6.989659e-19 1.174771e+00)) ((-1.415210e-13 -1.648020e+03 1.499497e-14) (-1.262392e-18 2.035493e+01 -3.265298e-17))
0.00286777    	((1.118503e+03 5.038342e-14 4.642282e+03) (2.057924e+01 6.967992e-19 1.169592e+00)) ((-2.242174e-13 -1.634835e+03 2.320275e-14) (-2.919324e-18 2.045788e+01 -3.932819e-17))
0.00291297    	((3.095390e+03 9.522007e-14 7.190223e+03) (2.071885e+01 7.069913e-19 1.158081e+00)) ((-4.368307e-13 -1.997212e+03 4.611687e-14) (-4.541309e-18 2.060732e+01 -4.625676e-17))
0.00295782    	((5.508504e+02 4.246524e-14 4.612236e+03) (2.082771e+01 7.102968e-19 1.150590e+00)) ((-1.737641e-13 -1.811678e+03 1.926291e-14) (-6.011022e-18 2.072617e+01 -5.228850e-17))
0.00300255    	((5.786842e+02 3.923724e-14 2.589241e+03) (2.095271e+01 9.533684e-19 1.160505e+00)) ((-2.293844e-13 -1.147283e+03 1.574493e-14) (-4.665352e-18 2.085692e+01 -5.819704e-17))
0.00304763    	((5.131427e+02 3.556648e-14 2.559525e+03) (2.109816e+01 1.023041e-18 1.179576e+00)) ((-2.016517e-13 -1.051109e+03 1.456684e-14) (-1.492118e-18 2.100596e+01 -6.292944e-17))
0.00309333    	((3.115852e+02 3.208914e-14 3.563492e+03) (2.124537e+01 1.122937e-18 1.184031e+00)) ((-1.386300e-13 -1.413852e+03 1.416338e-14) (-4.375791e-19 2.115930e+01 -6.595216e-17))
0.00313978    	((3.078544e+02 3.043749e-14 3.343255e+03) (2.142197e+01 1.261405e-18 1.175752e+00)) ((-1.337269e-13 -1.304414e+03 1.340877e-14) (-2.363823e-19 2.134484e+01 -6.912960e-17))
0.00318714    	((2.697099e+02 2.861596e-14 3.204592e+03) (2.161400e+01 1.327539e-18 1.161502e+00)) ((-1.255481e-13 -1.238889e+03 1.258574e-14) (-3.535168e-19 2.154632e+01 -7.281557e-17))
0.00323423    	((2.434215e+02 2.818212e-14 3.211248e+03) (2.181484e+01 1.305440e-18 1.144041e+00)) ((-1.230126e-13 -1.269487e+03 1.230831e-14) (-6.076790e-19 2.175617e+01 -7.570854e-17))
0.00328283    	((2.675777e+02 2.673805e-14 2.866054e+03) (2.200782e+01 1.134755e-18 1.138309e+00)) ((-1.226208e-13 -1.094593e+03 1.165128e-14) (-4.593366e-19 2.195412e+01 -7.798528e-17))
0.00333379    	((5.691290e+02 3.045713e-14 1.031478e+03) (2.224332e+01 7.234589e-19 1.146504e+00)) ((-2.016749e-13 -5.371578e+02 1.178978e-14) (1.640068e-19 2.219343e+01 -8.157544e-17))
0.00338588    	((2.170206e+02 2.591538e-14 2.994460e+03) (2.243683e+01 6.705784e-19 1.123358e+00)) ((-1.138037e-13 -1.172143e+03 1.128413e-14) (-7.971061e-19 2.240104e+01 -8.089004e-17))
0.00343829    	((2.123402e+02 2.498345e-14 2.869312e+03) (2.260305e+01 6.484224e-19 1.089107e+00)) ((-1.112243e-13 -1.115240e+03 1.083588e-14) (-2.432225e-18 2.258998e+01 -7.700040e-17))
0.00349137    	((2.076535e+02 2.454055e-14 2.815513e+03) (2.276391e+01 5.611951e-19 1.046770e+00)) ((-1.097355e-13 -1.092231e+03 1.063101e-14) (-4.601245e-18 2.277677e+01 -6.737441e-17))
0.0035417     	((1.955113e+02 2.415482e-14 2.787496e+03) (2.305763e+01 3.849527e-19 1.012980e+00)) ((-1.080120e-13 -1.082969e+03 1.044413e-14) (-6.458383e-18 2.308332e+01 -5.484110e-17))
0.00359362    	((2.026376e+02 2.418463e-14 2.770615e+03) (2.350862e+01 4.175851e-20 9.952729e-01)) ((-1.087148e-13 -1.083274e+03 1.042346e-14) (-8.040696e-18 2.353156e+01 -4.104842e-17))
0.00364741    	((1.777054e+02 2.729004e-14 2.826429e+03) (2.401881e+01 -8.327834e-19 1.008058e+00)) ((-1.176387e-13 -1.184234e+03 1.116395e-14) (-8.048365e-18 2.403304e+01 -2.374855e-17))
0.00370303    	((3.309942e+02 3.599969e-14 1.556470e+03) (2.465248e+01 -1.487409e-18 9.995582e-01)) ((-1.574657e-13 -6.472560e+02 1.330015e-14) (-1.023237e-17 2.466737e+01 2.025656e-18))
0.00375717    	((3.968887e+02 2.781308e-14 1.352235e+03) (2.535701e+01 -1.615770e-18 9.802089e-01)) ((-1.666692e-13 -5.708547e+02 1.051241e-14) (-1.381549e-17 2.537237e+01 2.063752e-17))
0.00381223    	((1.863779e+02 2.220706e-14 2.475897e+03) (2.609094e+01 -2.248019e-18 9.591290e-01)) ((-1.020922e-13 -9.285938e+02 9.541600e-15) (-1.768561e-17 2.610730e+01 3.681440e-17))
0.00386864    	((1.787579e+02 2.160399e-14 2.408988e+03) (2.676243e+01 -2.753254e-18 9.295194e-01)) ((-1.000287e-13 -8.980389e+02 9.266645e-15) (-2.181865e-17 2.679034e+01 5.161072e-17))
0.0039273     	((1.857976e+02 2.108159e-14 2.319800e+03) (2.736492e+01 -3.072833e-18 8.884753e-01)) ((-9.899099e-14 -8.492735e+02 9.045467e-15) (-2.631708e-17 2.741654e+01 6.533996e-17))
0.00398749    	((1.786285e+02 2.075476e-14 2.294075e+03) (2.789394e+01 -3.359629e-18 8.435319e-01)) ((-9.787732e-14 -8.439477e+02 8.874027e-15) (-3.103703e-17 2.797774e+01 7.788686e-17))
0.00404815    	((1.706742e+02 2.039406e-14 2.212688e+03) (2.834172e+01 -3.537696e-18 8.083775e-01)) ((-9.658545e-14 -8.187709e+02 8.643487e-15) (-3.662241e-17 2.845880e+01 8.906793e-17))
0.00410745    	((4.430363e+02 3.050776e-14 3.973540e+02) (2.880720e+01 -3.900936e-18 7.986089e-01)) ((-1.279915e-13 -2.370164e+02 1.112397e-14) (-4.374450e-17 2.895563e+01 1.032137e-16))
0.00416545    	((1.712757e+02 2.034622e-14 2.175495e+03) (2.913459e+01 -3.389219e-18 7.551780e-01)) ((-9.689939e-14 -8.102896e+02 8.600643e-15) (-4.961199e-17 2.931891e+01 1.102232e-16))
0.0042252     	((1.653879e+02 1.980341e-14 2.170974e+03) (2.942037e+01 -2.601981e-18 6.932291e-01)) ((-9.504614e-14 -8.089358e+02 8.355050e-15) (-5.536217e-17 2.964271e+01 1.161649e-16))
0.00428731    	((1.687141e+02 1.980079e-14 2.162998e+03) (2.967354e+01 -1.696683e-18 6.213098e-01)) ((-9.551364e-14 -8.101067e+02 8.340327e-15) (-5.980306e-17 2.993033e+01 1.205900e-16))
0.00434893    	((1.554843e+02 1.933922e-14 2.150782e+03) (2.994089e+01 -8.661291e-19 5.498858e-01)) ((-9.367150e-14 -8.100493e+02 8.110485e-15) (-6.318924e-17 3.022634e+01 1.215567e-16))
0.00441153    	((1.482004e+02 1.902500e-14 2.131252e+03) (3.023901e+01 -8.610255e-19 4.431391e-01)) ((-9.267849e-14 -8.064664e+02 7.951395e-15) (-6.546534e-17 3.056180e+01 1.207894e-16))
0.00447542    	((1.480373e+02 1.882786e-14 2.102942e+03) (3.059701e+01 -8.252513e-19 2.962384e-01)) ((-9.237837e-14 -7.963632e+02 7.842699e-15) (-6.813961e-17 3.096994e+01 1.177817e-16))
0.00453878    	((1.433997e+02 1.862942e-14 2.102167e+03) (3.099345e+01 -6.400965e-19 9.928158e-02)) ((-9.144678e-14 -7.978022e+02 7.740776e-15) (-7.173911e-17 3.143437e+01 1.130391e-16))
0.00460163    	((1.432991e+02 1.863093e-14 2.103992e+03) (3.140761e+01 -6.767492e-19 -1.600573e-01)) ((-9.165930e-14 -8.036268e+02 7.725914e-15) (-7.454549e-17 3.193986e+01 1.080768e-16))
0.00466633    	((1.414640e+02 1.844419e-14 2.088540e+03) (3.195218e+01 -7.293918e-19 -5.043716e-01)) ((-9.120668e-14 -8.000520e+02 7.624702e-15) (-7.513218e-17 3.261578e+01 1.047131e-16))
0.00473359    	((1.400914e+02 1.805220e-14 2.030576e+03) (3.254720e+01 -1.247270e-18 -9.656456e-01)) ((-8.998455e-14 -7.769068e+02 7.464219e-15) (-7.569088e-17 3.339334e+01 9.918842e-17))
0.00479827    	((2.684532e+02 1.439166e-14 1.879591e+02) (3.330305e+01 -1.965589e-18 -1.505349e+00)) ((-9.524513e-14 -2.502490e+02 5.688465e-15) (-7.844876e-17 3.437868e+01 8.733911e-17))
0.00486495    	((1.447018e+02 1.814936e-14 2.067060e+03) (3.408022e+01 -1.991504e-18 -2.194659e+00)) ((-9.011192e-14 -7.836457e+02 7.547991e-15) (-8.342160e-17 3.545069e+01 7.879219e-17))
0.00493502    	((1.437224e+02 1.799534e-14 2.046887e+03) (3.495381e+01 -1.679811e-18 -3.057642e+00)) ((-9.018698e-14 -7.829100e+02 7.415990e-15) (-9.082397e-17 3.670072e+01 7.092456e-17))
0.0050078     	((1.498426e+02 1.788478e-14 2.015874e+03) (3.588416e+01 -1.100951e-18 -4.072322e+00)) ((-9.011107e-14 -7.655167e+02 7.315440e-15) (-9.897398e-17 3.808055e+01 6.349115e-17))
0.00507753    	((1.539594e+02 1.780169e-14 1.992724e+03) (3.681008e+01 2.560210e-19 -5.166379e+00)) ((-8.972916e-14 -7.456126e+02 7.318386e-15) (-1.077602e-16 3.949614e+01 5.550009e-17))
0.00514997    	((1.244707e+02 1.752164e-14 2.013344e+03) (3.772268e+01 2.766574e-18 -6.369483e+00)) ((-8.812923e-14 -7.826194e+02 7.125303e-15) (-1.172217e-16 4.094951e+01 4.985051e-17))
0.00522001    	((1.340419e+02 1.694510e-14 1.924175e+03) (3.862027e+01 3.081970e-18 -7.594669e+00)) ((-8.737166e-14 -7.351714e+02 7.006206e-15) (-1.232080e-16 4.240198e+01 4.442710e-17))
0.00529542    	((1.334948e+02 1.732168e-14 1.846411e+03) (3.955798e+01 3.881553e-18 -8.915887e+00)) ((-8.696407e-14 -7.091304e+02 7.048821e-15) (-1.297173e-16 4.394317e+01 4.029254e-17))
0.00536646    	((1.295954e+02 1.712914e-14 1.942253e+03) (4.035711e+01 4.543307e-18 -1.016574e+01)) ((-8.727302e-14 -7.475889e+02 6.975723e-15) (-1.347624e-16 4.531334e+01 3.678851e-17))
0.00544037    	((1.319232e+02 1.679657e-14 1.879667e+03) (4.105710e+01 3.758403e-18 -1.141829e+01)) ((-8.623164e-14 -7.091689e+02 6.852070e-15) (-1.370984e-16 4.658530e+01 3.404281e-17))
0.00551353    	((1.335209e+02 1.666796e-14 1.854328e+03) (4.163069e+01 2.226277e-18 -1.260601e+01)) ((-8.595977e-14 -6.964255e+02 6.793538e-15) (-1.375345e-16 4.770136e+01 3.208057e-17))
0.00558898    	((1.352236e+02 1.681003e-14 1.876756e+03) (4.208891e+01 2.912579e-20 -1.375055e+01)) ((-8.666112e-14 -7.115638e+02 6.829202e-15) (-1.364665e-16 4.868267e+01 3.041270e-17))
0.00566288    	((1.595767e+02 2.121011e-14 1.036227e+03) (4.245990e+01 -9.666808e-19 -1.478571e+01)) ((-1.047905e-13 -4.569902e+02 8.019794e-15) (-1.355887e-16 4.953104e+01 3.230054e-17))
0.00573996    	((1.560550e+02 1.961586e-14 1.260095e+03) (4.271939e+01 -2.000610e-18 -1.577029e+01)) ((-9.887576e-14 -5.179259e+02 7.573794e-15) (-1.348604e-16 5.024544e+01 3.294494e-17))
0.00581746    	((1.368236e+02 1.643629e-14 1.789268e+03) (4.286002e+01 -3.374572e-18 -1.668395e+01)) ((-8.540722e-14 -6.680356e+02 6.723592e-15) (-1.345275e-16 5.080724e+01 3.076481e-17))
0.00589582    	((1.353809e+02 1.652511e-14 1.808105e+03) (4.292622e+01 -4.053132e-18 -1.752769e+01)) ((-8.602060e-14 -6.861705e+02 6.690649e-15) (-1.356928e-16 5.126371e+01 2.582660e-17))
0.00597247    	((1.351850e+02 1.635272e-14 1.777272e+03) (4.292381e+01 -4.439345e-18 -1.828412e+01)) ((-8.528580e-14 -6.645046e+02 6.608169e-15) (-1.381281e-16 5.161225e+01 1.959509e-17))
0.0060483     	((1.334271e+02 1.616928e-14 1.767293e+03) (4.286495e+01 -5.134609e-18 -1.896858e+01)) ((-8.430035e-14 -6.569777e+02 6.566342e-15) (-1.416465e-16 5.187193e+01 1.181316e-17))
0.00612454    	((1.318001e+02 1.607338e-14 1.763980e+03) (4.275495e+01 -5.948611e-18 -1.959459e+01)) ((-8.404128e-14 -6.557754e+02 6.506769e-15) (-1.466981e-16 5.205385e+01 2.946762e-18))
0.00619533    	((1.310216e+02 1.632451e-14 1.799576e+03) (4.261686e+01 -6.981910e-18 -2.012996e+01)) ((-8.503340e-14 -6.825794e+02 6.584933e-15) (-1.528394e-16 5.216559e+01 -6.005534e-18))
0.00626649    	((1.293704e+02 1.610876e-14 1.778599e+03) (4.244578e+01 -8.478090e-18 -2.061292e+01)) ((-8.402641e-14 -6.653786e+02 6.518488e-15) (-1.607209e-16 5.221919e+01 -1.498349e-17))
0.00633839    	((1.287473e+02 1.587351e-14 1.755575e+03) (4.225127e+01 -9.993400e-18 -2.103780e+01)) ((-8.316075e-14 -6.499770e+02 6.423013e-15) (-1.716262e-16 5.222070e+01 -2.285265e-17))
0.00641106    	((1.316681e+02 1.588433e-14 1.742208e+03) (4.205334e+01 -1.146561e-17 -2.140013e+01)) ((-8.353963e-14 -6.456060e+02 6.424972e-15) (-1.858393e-16 5.218795e+01 -2.859148e-17))
0.00648451    	((1.300987e+02 1.589015e-14 1.747021e+03) (4.185615e+01 -1.297605e-17 -2.169602e+01)) ((-8.354584e-14 -6.511408e+02 6.416810e-15) (-2.024582e-16 5.212235e+01 -3.090735e-17))
0.00655877    	((1.270149e+02 1.579776e-14 1.749226e+03) (4.165644e+01 -1.384670e-17 -2.191933e+01)) ((-8.311571e-14 -6.552628e+02 6.350936e-15) (-2.216891e-16 5.201576e+01 -3.004728e-17))
0.00663345    	((1.274014e+02 1.551572e-14 1.713079e+03) (4.145751e+01 -1.546291e-17 -2.208521e+01)) ((-8.205612e-14 -6.298511e+02 6.252534e-15) (-2.379829e-16 5.187911e+01 -2.692049e-17))
0.00670854    	((1.344926e+02 1.884144e-14 1.461355e+03) (4.127632e+01 -1.717624e-17 -2.220573e+01)) ((-8.412986e-14 -5.519105e+02 7.244692e-15) (-2.482709e-16 5.173580e+01 -2.212731e-17))
0.00678406    	((1.523612e+02 2.750032e-14 8.666883e+02) (4.114988e+01 -1.942504e-17 -2.223744e+01)) ((-8.994044e-14 -3.769362e+02 9.859588e-15) (-2.511527e-16 5.161387e+01 -1.899452e-17))
0.00686001    	((1.325509e+02 1.611556e-14 1.668950e+03) (4.095066e+01 -2.196849e-17 -2.224859e+01)) ((-8.336530e-14 -6.264050e+02 6.419099e-15) (-2.420032e-16 5.140151e+01 -1.509641e-17))
0.00693641    	((1.342530e+02 1.579884e-14 1.652682e+03) (4.073773e+01 -2.216703e-17 -2.221818e+01)) ((-8.264157e-14 -6.136023e+02 6.321504e-15) (-2.241414e-16 5.115307e+01 -1.207914e-17))
0.00699689    	((1.282341e+02 1.577413e-14 1.678903e+03) (4.060803e+01 -2.215777e-17 -2.209780e+01)) ((-8.199503e-14 -6.164815e+02 6.338748e-15) (-2.141558e-16 5.094327e+01 -5.900644e-18))
0.00705765    	((1.281513e+02 1.565094e-14 1.667659e+03) (4.048557e+01 -2.166771e-17 -2.196810e+01)) ((-8.172658e-14 -6.104874e+02 6.287633e-15) (-2.000313e-16 5.073834e+01 3.925850e-19))
0.0071187     	((1.282966e+02 1.547194e-14 1.655474e+03) (4.037865e+01 -2.213807e-17 -2.184030e+01)) ((-8.137222e-14 -6.023344e+02 6.219745e-15) (-1.819778e-16 5.055433e+01 6.362697e-18))
0.00718004    	((1.285049e+02 1.566960e-14 1.672701e+03) (4.027976e+01 -2.436332e-17 -2.172003e+01)) ((-8.213097e-14 -6.156771e+02 6.303744e-15) (-1.613890e-16 5.038746e+01 9.058041e-18))
0.00724197    	((1.248343e+02 1.563494e-14 1.695993e+03) (4.017137e+01 -2.700938e-17 -2.160737e+01)) ((-8.218850e-14 -6.363364e+02 6.229045e-15) (-1.409228e-16 5.021997e+01 6.704948e-18))
0.00730451    	((1.281465e+02 1.548258e-14 1.647979e+03) (4.004045e+01 -3.014883e-17 -2.150054e+01)) ((-8.176460e-14 -6.048740e+02 6.208107e-15) (-1.224099e-16 5.003669e+01 -2.188008e-18))
0.00736767    	((1.283082e+02 1.554733e-14 1.655610e+03) (3.989322e+01 -3.368374e-17 -2.141193e+01)) ((-8.198320e-14 -6.096307e+02 6.252818e-15) (-1.097511e-16 4.984985e+01 -1.866199e-17))
0.00743212    	((1.256887e+02 1.530201e-14 1.641642e+03) (3.972856e+01 -3.765618e-17 -2.133311e+01)) ((-8.107234e-14 -6.000369e+02 6.134008e-15) (-1.027582e-16 4.965409e+01 -4.285787e-17))
0.00749862    	((1.260315e+02 1.516820e-14 1.626704e+03) (3.954610e+01 -4.144724e-17 -2.129177e+01)) ((-8.072275e-14 -5.918265e+02 6.077962e-15) (-1.031763e-16 4.945811e+01 -7.409473e-17))
0.00756731    	((1.262077e+02 1.505647e-14 1.624197e+03) (3.935866e+01 -4.359701e-17 -2.128203e+01)) ((-8.054261e-14 -5.909664e+02 6.026911e-15) (-1.129860e-16 4.927247e+01 -1.102557e-16))
0.00763716    	((1.234344e+02 1.518856e-14 1.663325e+03) (3.916824e+01 -4.530369e-17 -2.128809e+01)) ((-8.106468e-14 -6.202038e+02 6.044369e-15) (-1.294802e-16 4.909223e+01 -1.471718e-16))
0.007713      	((1.259344e+02 1.508424e-14 1.632416e+03) (3.896503e+01 -4.684288e-17 -2.130882e+01)) ((-8.094223e-14 -6.030865e+02 6.008537e-15) (-1.526045e-16 4.890862e+01 -1.829575e-16))
0.00779279    	((1.241385e+02 1.478561e-14 1.621966e+03) (3.875971e+01 -5.174819e-17 -2.134295e+01)) ((-7.992359e-14 -5.941982e+02 5.881259e-15) (-1.769106e-16 4.873196e+01 -2.148467e-16))
0.0078764     	((1.233381e+02 1.465027e-14 1.614264e+03) (3.856206e+01 -5.689531e-17 -2.138984e+01)) ((-7.948272e-14 -5.897133e+02 5.823406e-15) (-2.044717e-16 4.857196e+01 -2.388669e-16))
0.00796178    	((1.225731e+02 1.466314e-14 1.620754e+03) (3.838014e+01 -6.025978e-17 -2.144670e+01)) ((-7.964684e-14 -5.974694e+02 5.804455e-15) (-2.350468e-16 4.843474e+01 -2.531216e-16))
0.00804901    	((1.190795e+02 1.508562e-14 1.689672e+03) (3.824049e+01 -6.183026e-17 -2.148715e+01)) ((-8.131177e-14 -6.527495e+02 5.893097e-15) (-2.707851e-16 4.833268e+01 -2.503922e-16))
0.00813688    	((1.185354e+02 1.483129e-14 1.667824e+03) (3.818003e+01 -6.112961e-17 -2.149668e+01)) ((-8.033491e-14 -6.353934e+02 5.804303e-15) (-3.125606e-16 4.829555e+01 -2.273880e-16))
0.00822476    	((1.217638e+02 1.464876e-14 1.622670e+03) (3.808867e+01 -5.956150e-17 -2.152250e+01)) ((-7.970468e-14 -6.032362e+02 5.779955e-15) (-3.516079e-16 4.823507e+01 -1.998548e-16))
0.00831263    	((1.222389e+02 1.476413e-14 1.612539e+03) (3.797574e+01 -5.738613e-17 -2.155298e+01)) ((-8.002982e-14 -5.998369e+02 5.829627e-15) (-3.885138e-16 4.815461e+01 -1.678840e-16))
0.00839985    	((1.270120e+02 1.804797e-14 1.325609e+03) (3.789669e+01 -5.567819e-17 -2.154004e+01)) ((-8.594099e-14 -5.100239e+02 6.890969e-15) (-4.143127e-16 4.808445e+01 -1.403161e-16))
0.00845844    	((1.368959e+02 2.271916e-14 9.843130e+02) (3.788196e+01 -5.435636e-17 -2.148775e+01)) ((-9.470759e-14 -4.071112e+02 8.484807e-15) (-4.260959e-16 4.805397e+01 -1.219025e-16))
0.00851733    	((1.194940e+02 1.537793e-14 1.667080e+03) (3.782805e+01 -5.333373e-17 -2.144672e+01)) ((-8.196049e-14 -6.483413e+02 5.980039e-15) (-4.372250e-16 4.799110e+01 -1.050596e-16))
0.00857651    	((1.204976e+02 1.517180e-14 1.639067e+03) (3.776073e+01 -5.248313e-17 -2.140443e+01)) ((-8.111116e-14 -6.255595e+02 5.948823e-15) (-4.474929e-16 4.791572e+01 -8.897468e-17))
0.00863632    	((1.224959e+02 1.505127e-14 1.622954e+03) (3.768008e+01 -5.166306e-17 -2.135360e+01)) ((-8.081458e-14 -6.118980e+02 5.939894e-15) (-4.567703e-16 4.782381e+01 -7.370540e-17))
0.00869645    	((1.228007e+02 1.474542e-14 1.597949e+03) (3.758840e+01 -5.085930e-17 -2.129394e+01)) ((-7.994414e-14 -5.964109e+02 5.820060e-15) (-4.648286e-16 4.771722e+01 -5.956232e-17))
0.00875722    	((1.219251e+02 1.479953e-14 1.611482e+03) (3.751406e+01 -4.999997e-17 -2.123886e+01)) ((-8.018037e-14 -6.058535e+02 5.825625e-15) (-4.714263e-16 4.763198e+01 -4.775498e-17))
0.00881866    	((1.205027e+02 1.453711e-14 1.600486e+03) (3.748311e+01 -4.915015e-17 -2.121492e+01)) ((-7.928072e-14 -5.966756e+02 5.717645e-15) (-4.762895e-16 4.760954e+01 -3.904941e-17))
0.00888112    	((1.197165e+02 1.449284e-14 1.596995e+03) (3.748712e+01 -4.820012e-17 -2.126586e+01)) ((-7.916960e-14 -5.975564e+02 5.680609e-15) (-4.822321e-16 4.766535e+01 -3.617488e-17))
0.00894466    	((1.151760e+02 1.493451e-14 1.677369e+03) (3.748813e+01 -4.772264e-17 -2.136336e+01)) ((-8.064851e-14 -6.549548e+02 5.804664e-15) (-4.854746e-16 4.773997e+01 -3.325712e-17))
0.00901007    	((1.192481e+02 1.460700e-14 1.610147e+03) (3.748946e+01 -4.731298e-17 -2.148715e+01)) ((-7.959636e-14 -6.076720e+02 5.715919e-15) (-4.866126e-16 4.782646e+01 -2.925461e-17))
0.00907709    	((1.193575e+02 1.454523e-14 1.602509e+03) (3.748753e+01 -4.688664e-17 -2.161876e+01)) ((-7.938722e-14 -6.021789e+02 5.694220e-15) (-4.868555e-16 4.791235e+01 -2.506721e-17))
0.00914622    	((1.174562e+02 1.466646e-14 1.629401e+03) (3.750219e+01 -4.625794e-17 -2.178672e+01)) ((-7.975502e-14 -6.210751e+02 5.728120e-15) (-4.859224e-16 4.803616e+01 -1.611620e-17))
0.00921762    	((1.181142e+02 1.446086e-14 1.604011e+03) (3.764263e+01 -4.564918e-17 -2.243405e+01)) ((-7.910432e-14 -6.036810e+02 5.650518e-15) (-4.857603e-16 4.857110e+01 1.828820e-17))
0.00929199    	((1.175127e+02 1.486077e-14 1.636367e+03) (3.729901e+01 -3.551854e-17 -2.422420e+01)) ((-8.046967e-14 -6.306744e+02 5.795672e-15) (-5.975481e-16 4.927672e+01 1.625056e-16))
0.00936902    	((1.034490e+02 1.569219e-14 1.826296e+03) (3.691567e+01 -3.109243e-17 -2.619959e+01)) ((-8.313798e-14 -7.681346e+02 5.972066e-15) (-4.993945e-16 5.006998e+01 1.313782e-16))
0.00944895    	((7.894362e+01 1.760342e-14 2.188951e+03) (3.630895e+01 -2.979632e-17 -2.783648e+01)) ((-8.895652e-14 -1.029705e+03 6.494863e-15) (-3.060293e-16 5.044401e+01 3.971836e-17))
0.00952829    	((1.222994e+02 1.415137e-14 1.540144e+03) (3.646153e+01 -3.142490e-17 -2.871832e+01)) ((-7.822116e-14 -5.596970e+02 5.555299e-15) (-2.404868e-16 5.115362e+01 4.670859e-17))
0.00961342    	((1.201925e+02 1.412124e-14 1.550674e+03) (3.640702e+01 -3.590781e-17 -2.988975e+01)) ((-7.813010e-14 -5.691853e+02 5.521981e-15) (-2.100903e-16 5.183431e+01 4.077819e-17))