# Forces      
# CofR        : (0.000000e+00 0.000000e+00 -1.000000e+00)
# Time        forces(pressure viscous)	moments(pressure viscous)
0             	((2.842171e-14 8.429467e-17 3.979039e-13) (5.131539e+00 -1.981657e-20 9.438166e-01)) ((1.065814e-14 -5.684342e-14 3.552714e-15) (-4.719083e-02 4.666340e+00 2.565770e-01))
1.19976e-05   	((8.584503e+04 -4.898558e-14 8.408824e+05) (5.170602e+00 -1.851214e-20 8.428293e-01)) ((-4.204412e+04 -2.313324e+05 4.292252e+03) (-4.214146e-02 4.746448e+00 2.585301e-01))
2.63878e-05   	((1.119826e+04 -1.053786e-14 1.415449e+05) (5.177106e+00 -2.690410e-20 8.079127e-01)) ((-7.077246e+03 -4.857778e+04 5.599131e+02) (-4.039564e-02 4.765113e+00 2.588553e-01))
4.36511e-05   	((5.933647e+03 -5.705965e-15 7.736829e+04) (5.190181e+00 -2.800574e-20 7.924247e-01)) ((-3.868414e+03 -2.616898e+04 2.966824e+02) (-3.962124e-02 4.784251e+00 2.595091e-01))
6.43527e-05   	((4.487777e+03 -3.780745e-15 5.413153e+04) (5.209706e+00 -2.849043e-20 7.832059e-01)) ((-2.706576e+03 -1.817908e+04 2.243888e+02) (-3.916030e-02 4.807595e+00 2.604853e-01))
8.91792e-05   	((2.908460e+03 -2.611820e-15 3.767915e+04) (5.233157e+00 -2.878353e-20 7.768312e-01)) ((-1.883957e+03 -1.282035e+04 1.454230e+02) (-3.884156e-02 4.833832e+00 2.616579e-01))
0.000118941   	((2.404313e+03 -1.888267e-15 2.791156e+04) (5.264692e+00 -1.804644e-20 7.796469e-01)) ((-1.395578e+03 -9.323002e+03 1.202156e+02) (-3.898234e-02 4.859315e+00 2.632346e-01))
0.000154634   	((1.846481e+03 -1.333893e-15 2.074326e+04) (5.303589e+00 -1.630511e-20 7.782856e-01)) ((-1.037163e+03 -6.783922e+03 9.232404e+01) (-3.891428e-02 4.897495e+00 2.651794e-01))
0.000197405   	((8.484486e+02 1.613509e-16 2.635945e+04) (5.345278e+00 -2.361126e-20 7.652956e-01)) ((-1.317973e+03 -1.325750e+04 4.242243e+01) (-3.826478e-02 4.951166e+00 2.672639e-01))
0.000248707   	((1.227066e+03 -6.109609e-16 1.360686e+04) (5.399583e+00 -2.480139e-20 7.621511e-01)) ((-6.803429e+02 -4.714698e+03 6.135329e+01) (-3.810756e-02 5.007732e+00 2.699791e-01))
0.000310237   	((1.383618e+03 -2.669641e-16 1.016457e+04) (5.473655e+00 -2.542474e-20 7.621761e-01)) ((-5.082286e+02 -3.194156e+03 6.918088e+01) (-3.810881e-02 5.083375e+00 2.736827e-01))
0.000383982   	((1.111386e+03 -3.512975e-16 8.828056e+03) (5.569515e+00 -2.541295e-20 7.611454e-01)) ((-4.414028e+02 -2.702324e+03 5.556929e+01) (-3.805727e-02 5.180636e+00 2.784758e-01))
0.000472342   	((1.057121e+03 -2.848598e-16 7.636436e+03) (5.697008e+00 -2.536952e-20 7.608661e-01)) ((-3.818218e+02 -2.244273e+03 5.285605e+01) (-3.804330e-02 5.309054e+00 2.848504e-01))
0.000577897   	((1.178252e+03 -1.353436e-16 6.577391e+03) (5.872731e+00 -2.573116e-20 7.587567e-01)) ((-3.288696e+02 -1.759504e+03 5.891258e+01) (-3.793784e-02 5.485495e+00 2.936365e-01))
0.000704014   	((1.267928e+03 -4.498322e-17 6.083285e+03) (6.113201e+00 -2.558667e-20 7.611965e-01)) ((-3.041642e+02 -1.550314e+03 6.339640e+01) (-3.805983e-02 5.724940e+00 3.056600e-01))
0.000854764   	((3.574952e+03 5.871250e-16 8.543131e+03) (6.508877e+00 -2.084536e-20 7.574727e-01)) ((-4.271566e+02 -1.089775e+03 1.787476e+02) (-3.787364e-02 6.118730e+00 3.254439e-01))
0.00103538    	((3.564754e+02 -2.136669e-16 4.023457e+03) (6.917439e+00 -1.808853e-20 7.743561e-01)) ((-2.011729e+02 -1.331978e+03 1.782377e+01) (-3.871781e-02 6.523774e+00 3.458720e-01))
0.00125089    	((2.932273e+02 -1.685671e-16 3.304678e+03) (7.383832e+00 -1.712543e-20 8.306298e-01)) ((-1.652339e+02 -1.108269e+03 1.466137e+01) (-4.153149e-02 6.980876e+00 3.691916e-01))
0.00150772    	((2.935700e+02 -1.325083e-16 2.671777e+03) (7.904838e+00 -1.771218e-20 8.600026e-01)) ((-1.335888e+02 -9.128062e+02 1.467850e+01) (-4.300013e-02 7.498576e+00 3.952419e-01))
0.00179222    	((5.016726e+02 9.938660e-17 2.035878e+03) (8.435220e+00 -1.732387e-20 8.922823e-01)) ((-1.017939e+02 -6.326768e+02 2.508363e+01) (-4.461412e-02 8.025895e+00 4.217610e-01))
0.00210615    	((4.164796e+02 2.244384e-16 1.644029e+03) (8.956707e+00 -8.207016e-21 9.237548e-01)) ((-8.220146e+01 -5.654530e+02 2.082398e+01) (-4.618774e-02 8.544566e+00 4.478353e-01))
0.00242007    	((1.881279e+02 -6.505401e-17 2.218791e+03) (9.417586e+00 -7.285123e-21 9.453231e-01)) ((-1.109396e+02 -8.135314e+02 9.406394e+00) (-4.726616e-02 9.004572e+00 4.708793e-01))
0.002734      	((1.554928e+02 -8.731103e-17 2.372503e+03) (9.829769e+00 -7.954919e-21 9.606326e-01)) ((-1.186252e+02 -9.581467e+02 7.774639e+00) (-4.803163e-02 9.416789e+00 4.914884e-01))
0.00304232    	((1.109582e+02 -3.749431e-16 5.368444e+03) (1.019843e+01 -9.491366e-21 1.002708e+00)) ((-2.684222e+02 -3.199676e+03 5.547912e+00) (-5.013538e-02 9.777718e+00 5.099217e-01))
0.00328809    	((1.846099e+02 -3.001369e-17 1.566330e+03) (1.045769e+01 -1.190973e-20 1.015928e+00)) ((-7.831651e+01 -4.886740e+02 9.230497e+00) (-5.079640e-02 1.003619e+01 5.228843e-01))
0.00353029    	((1.541367e+02 -3.405867e-17 1.538106e+03) (1.069233e+01 -1.248994e-20 1.024722e+00)) ((-7.690528e+01 -4.860104e+02 7.706835e+00) (-5.123608e-02 1.027073e+01 5.346165e-01))
0.00377611    	((1.385451e+02 -3.557280e-17 1.484375e+03) (1.091381e+01 -1.282322e-20 1.019563e+00)) ((-7.421875e+01 -4.845181e+02 6.927255e+00) (-5.097815e-02 1.049617e+01 5.456907e-01))
0.00403363    	((1.248962e+02 -3.562932e-17 1.437335e+03) (1.112449e+01 -1.237828e-20 1.022135e+00)) ((-7.186673e+01 -4.831877e+02 6.244808e+00) (-5.110673e-02 1.070892e+01 5.562245e-01))
0.00429973    	((1.066048e+02 -3.912881e-17 1.437030e+03) (1.132026e+01 -1.215813e-20 1.023645e+00)) ((-7.185152e+01 -5.132392e+02 5.330242e+00) (-5.118223e-02 1.090738e+01 5.660129e-01))
0.0045801     	((1.405862e+02 -7.475753e-17 8.615899e+02) (1.150074e+01 -1.065598e-20 1.042718e+00)) ((-4.307949e+01 -3.253681e+02 7.029310e+00) (-5.213591e-02 1.108547e+01 5.750368e-01))
0.00487663    	((1.090143e+02 -4.703791e-17 1.202994e+03) (1.166641e+01 -9.314010e-21 1.050212e+00)) ((-6.014970e+01 -4.383019e+02 5.450716e+00) (-5.251058e-02 1.125240e+01 5.833207e-01))
0.00518527    	((6.079055e+01 -8.942331e-17 1.954247e+03) (1.181816e+01 -9.067880e-21 1.055286e+00)) ((-9.771237e+01 -9.129015e+02 3.039527e+00) (-5.276429e-02 1.140672e+01 5.909078e-01))
0.00549391    	((7.340154e+01 -6.316659e-17 1.626831e+03) (1.195119e+01 -8.876844e-21 1.056741e+00)) ((-8.134153e+01 -7.012557e+02 3.670077e+00) (-5.283703e-02 1.154413e+01 5.975594e-01))
0.00580926    	((8.390428e+01 -4.240991e-17 1.350184e+03) (1.207059e+01 -8.436663e-21 1.055523e+00)) ((-6.750922e+01 -5.231932e+02 4.195214e+00) (-5.277615e-02 1.166911e+01 6.035293e-01))
0.00613178    	((8.703750e+01 -3.277811e-17 1.192573e+03) (1.217869e+01 -7.623550e-21 1.045878e+00)) ((-5.962867e+01 -4.274671e+02 4.351875e+00) (-5.229389e-02 1.178562e+01 6.089347e-01))
0.00647003    	((9.969475e+01 -3.496407e-17 9.216340e+02) (1.227591e+01 -6.973787e-21 1.051278e+00)) ((-4.608170e+01 -3.379918e+02 4.984737e+00) (-5.256389e-02 1.188644e+01 6.137957e-01))
0.0068357     	((8.527405e+01 -2.859451e-17 1.104437e+03) (1.235497e+01 -7.261419e-21 1.043765e+00)) ((-5.522183e+01 -3.878808e+02 4.263703e+00) (-5.218826e-02 1.197320e+01 6.177483e-01))
0.00723462    	((8.196342e+01 -2.716021e-17 1.081693e+03) (1.241408e+01 -7.226963e-21 1.029791e+00)) ((-5.408463e+01 -3.808701e+02 4.098171e+00) (-5.148953e-02 1.204222e+01 6.207042e-01))
0.00764641    	((8.094219e+01 -2.598072e-17 1.054196e+03) (1.244823e+01 -7.096204e-21 1.007905e+00)) ((-5.270980e+01 -3.699612e+02 4.047109e+00) (-5.039524e-02 1.208964e+01 6.224114e-01))
0.00802076    	((7.996446e+01 -2.541114e-17 1.037848e+03) (1.245984e+01 -7.152708e-21 9.820240e-01)) ((-5.189241e+01 -3.640675e+02 3.998223e+00) (-4.910120e-02 1.211538e+01 6.229918e-01))
0.00839511    	((7.827754e+01 -2.456886e-17 1.019340e+03) (1.245199e+01 -6.894823e-21 9.500507e-01)) ((-5.096699e+01 -3.628440e+02 3.913877e+00) (-4.750254e-02 1.212336e+01 6.225996e-01))
0.00876946    	((7.956025e+01 -1.843107e-17 9.135815e+02) (1.240907e+01 -7.927867e-21 9.280843e-01)) ((-4.567907e+01 -3.479459e+02 3.978013e+00) (-4.640421e-02 1.209005e+01 6.204537e-01))
0.00914381    	((7.277993e+01 -2.375414e-17 1.043449e+03) (1.234389e+01 -6.982923e-21 8.995670e-01)) ((-5.217244e+01 -3.873741e+02 3.638997e+00) (-4.497835e-02 1.203455e+01 6.171945e-01))
0.00951816    	((7.343744e+01 -2.333697e-17 1.016259e+03) (1.227887e+01 -4.824096e-21 8.685592e-01)) ((-5.081295e+01 -3.728427e+02 3.671872e+00) (-4.342796e-02 1.197884e+01 6.139433e-01))
0.00989252    	((7.317352e+01 -2.236092e-17 9.880319e+02) (1.221976e+01 -4.267542e-22 8.366216e-01)) ((-4.940160e+01 -3.601869e+02 3.658676e+00) (-4.183108e-02 1.192882e+01 6.109881e-01))
0.0102669     	((7.277298e+01 -2.220607e-17 9.808647e+02) (1.217394e+01 3.125405e-21 8.052765e-01)) ((-4.904324e+01 -3.562089e+02 3.638649e+00) (-4.026382e-02 1.189212e+01 6.086968e-01))
0.0106412     	((7.186350e+01 -2.185641e-17 9.695727e+02) (1.213276e+01 5.658565e-21 7.760344e-01)) ((-4.847863e+01 -3.511582e+02 3.593175e+00) (-3.880172e-02 1.185944e+01 6.066380e-01))
0.0110156     	((7.129167e+01 -2.119597e-17 9.577830e+02) (1.209298e+01 8.039034e-21 7.485292e-01)) ((-4.788915e+01 -3.464749e+02 3.564584e+00) (-3.742646e-02 1.182764e+01 6.046490e-01))
0.0113899     	((7.338195e+01 -1.956269e-17 8.327533e+02) (1.205162e+01 9.661262e-21 7.279649e-01)) ((-4.163767e+01 -3.098530e+02 3.669098e+00) (-3.639825e-02 1.179204e+01 6.025812e-01))
0.0117643     	((7.056697e+01 -2.048251e-17 9.379153e+02) (1.200330e+01 9.959520e-21 7.062087e-01)) ((-4.689576e+01 -3.415324e+02 3.528349e+00) (-3.531044e-02 1.175004e+01 6.001650e-01))
0.0121386     	((6.974729e+01 -2.012113e-17 9.336625e+02) (1.195277e+01 9.456751e-21 6.846781e-01)) ((-4.668312e+01 -3.392211e+02 3.487364e+00) (-3.423390e-02 1.170573e+01 5.976387e-01))
0.012513      	((6.935600e+01 -1.993208e-17 9.273554e+02) (1.189859e+01 7.542817e-21 6.640435e-01)) ((-4.636777e+01 -3.380539e+02 3.467800e+00) (-3.320217e-02 1.165743e+01 5.949296e-01))
0.0128873     	((6.859397e+01 -1.956857e-17 9.234194e+02) (1.184187e+01 6.028200e-21 6.444979e-01)) ((-4.617097e+01 -3.371912e+02 3.429699e+00) (-3.222489e-02 1.160642e+01 5.920937e-01))
0.0132617     	((6.846813e+01 -1.951140e-17 9.151280e+02) (1.178179e+01 4.551927e-21 6.249552e-01)) ((-4.575640e+01 -3.351732e+02 3.423406e+00) (-3.124776e-02 1.155203e+01 5.890894e-01))
0.013636      	((6.789115e+01 -1.960534e-17 9.102990e+02) (1.172148e+01 3.078538e-21 6.049866e-01)) ((-4.551495e+01 -3.327991e+02 3.394558e+00) (-3.024933e-02 1.149773e+01 5.860742e-01))
0.0140104     	((6.734377e+01 -2.035173e-17 9.049667e+02) (1.166285e+01 1.498238e-21 5.842314e-01)) ((-4.524833e+01 -3.304006e+02 3.367188e+00) (-2.921157e-02 1.144565e+01 5.831425e-01))
0.0143847     	((6.694808e+01 -2.101125e-17 9.030767e+02) (1.160579e+01 -1.738457e-22 5.601279e-01)) ((-4.515383e+01 -3.318032e+02 3.347404e+00) (-2.800639e-02 1.139685e+01 5.802895e-01))
0.0147357     	((6.703306e+01 -2.155997e-17 8.028682e+02) (1.154885e+01 -1.990989e-21 5.474674e-01)) ((-4.014341e+01 -3.001126e+02 3.351653e+00) (-2.737337e-02 1.134381e+01 5.774424e-01))
0.0150866     	((6.647889e+01 -2.039794e-17 8.916337e+02) (1.148987e+01 -3.042602e-21 5.296926e-01)) ((-4.458169e+01 -3.272741e+02 3.323945e+00) (-2.648463e-02 1.129097e+01 5.744937e-01))
0.0154376     	((6.606824e+01 -2.089293e-17 8.890402e+02) (1.143091e+01 -3.507987e-21 5.113128e-01)) ((-4.445201e+01 -3.268121e+02 3.303412e+00) (-2.556564e-02 1.123867e+01 5.715456e-01))
0.0157885     	((6.569278e+01 -2.187986e-17 8.858467e+02) (1.137167e+01 -3.911146e-21 4.927184e-01)) ((-4.429234e+01 -3.262639e+02 3.284639e+00) (-2.463592e-02 1.118654e+01 5.685834e-01))
0.0161395     	((6.545680e+01 -2.193030e-17 8.812798e+02) (1.131335e+01 -4.310117e-21 4.740840e-01)) ((-4.406399e+01 -3.231113e+02 3.272840e+00) (-2.370420e-02 1.113591e+01 5.656675e-01))
0.0164905     	((6.545690e+01 -2.204324e-17 8.763188e+02) (1.125511e+01 -4.930263e-21 4.556629e-01)) ((-4.381594e+01 -3.210310e+02 3.272845e+00) (-2.278315e-02 1.108587e+01 5.627556e-01))
0.0168414     	((6.530485e+01 -2.167157e-17 8.716900e+02) (1.119656e+01 -5.886597e-21 4.371016e-01)) ((-4.358450e+01 -3.186485e+02 3.265243e+00) (-2.185508e-02 1.103609e+01 5.598279e-01))
0.0171924     	((6.517733e+01 -2.189663e-17 8.671108e+02) (1.113976e+01 -7.112381e-21 4.176648e-01)) ((-4.335554e+01 -3.178477e+02 3.258866e+00) (-2.088324e-02 1.098899e+01 5.569878e-01))
0.0175433     	((6.476140e+01 -2.137915e-17 8.663717e+02) (1.108917e+01 -8.874665e-21 3.964606e-01)) ((-4.331858e+01 -3.166938e+02 3.238070e+00) (-1.982303e-02 1.094979e+01 5.544587e-01))
0.0178943     	((6.420447e+01 -2.188548e-17 8.545282e+02) (1.104143e+01 -1.178611e-20 3.720234e-01)) ((-4.272641e+01 -3.140902e+02 3.210224e+00) (-1.860117e-02 1.091554e+01 5.520713e-01))
0.0182452     	((6.328917e+01 -2.288621e-17 7.854333e+02) (1.098730e+01 -1.431594e-20 3.556815e-01)) ((-3.927167e+01 -2.915016e+02 3.164458e+00) (-1.778407e-02 1.087181e+01 5.493649e-01))
0.0185962     	((6.392643e+01 -2.144739e-17 8.576285e+02) (1.092942e+01 -1.716069e-20 3.349125e-01)) ((-4.288142e+01 -3.153142e+02 3.196321e+00) (-1.674562e-02 1.082663e+01 5.464711e-01))
0.0189471     	((6.380121e+01 -2.108890e-17 8.565639e+02) (1.086845e+01 -1.998393e-20 3.138010e-01)) ((-4.282819e+01 -3.145676e+02 3.190060e+00) (-1.569005e-02 1.077894e+01 5.434226e-01))
0.0192981     	((6.351865e+01 -2.113569e-17 8.568064e+02) (1.080389e+01 -2.304850e-20 2.921947e-01)) ((-4.284032e+01 -3.155446e+02 3.175933e+00) (-1.460973e-02 1.072820e+01 5.401943e-01))
0.019649      	((6.314706e+01 -2.167943e-17 8.586959e+02) (1.073499e+01 -2.649410e-20 2.700560e-01)) ((-4.293480e+01 -3.182506e+02 3.157353e+00) (-1.350280e-02 1.067359e+01 5.367494e-01))
0.02          	((6.294958e+01 -2.088061e-17 8.541762e+02) (1.066612e+01 -2.920159e-20 2.470481e-01)) ((-4.270881e+01 -3.149576e+02 3.147479e+00) (-1.235240e-02 1.061994e+01 5.333058e-01))
0.0203704     	((6.281047e+01 -2.050110e-17 8.525771e+02) (1.059186e+01 -3.079003e-20 2.224597e-01)) ((-4.262886e+01 -3.132389e+02 3.140523e+00) (-1.112299e-02 1.056223e+01 5.295930e-01))
0.0207407     	((6.270735e+01 -2.113891e-17 8.497055e+02) (1.051695e+01 -3.369533e-20 1.975741e-01)) ((-4.248527e+01 -3.132534e+02 3.135368e+00) (-9.878703e-03 1.050422e+01 5.258474e-01))
0.0211111     	((6.273134e+01 -2.023488e-17 8.448787e+02) (1.044661e+01 -3.497375e-20 1.706404e-01)) ((-4.224394e+01 -3.096087e+02 3.136567e+00) (-8.532021e-03 1.045240e+01 5.223305e-01))
0.0214815     	((6.180162e+01 -2.109432e-17 8.018980e+02) (1.037798e+01 -3.587298e-20 1.433712e-01)) ((-4.009490e+01 -2.955691e+02 3.090081e+00) (-7.168558e-03 1.040256e+01 5.188989e-01))
0.0218519     	((6.153048e+01 -2.098630e-17 7.935766e+02) (1.030681e+01 -3.740459e-20 1.210592e-01)) ((-3.967883e+01 -2.926332e+02 3.076524e+00) (-6.052959e-03 1.034774e+01 5.153406e-01))
0.0222222     	((6.220189e+01 -2.035625e-17 8.404878e+02) (1.023287e+01 -3.956045e-20 9.632808e-02)) ((-4.202439e+01 -3.097322e+02 3.110095e+00) (-4.816404e-03 1.029099e+01 5.116434e-01))
0.0225926     	((6.193912e+01 -2.008943e-17 8.405851e+02) (1.015792e+01 -4.192026e-20 7.184415e-02)) ((-4.202926e+01 -3.096990e+02 3.096956e+00) (-3.592207e-03 1.023311e+01 5.078960e-01))
0.022963      	((6.148601e+01 -2.051150e-17 8.435285e+02) (1.008264e+01 -4.430623e-20 4.764700e-02)) ((-4.217643e+01 -3.124295e+02 3.074300e+00) (-2.382350e-03 1.017487e+01 5.041320e-01))
0.0233333     	((6.129713e+01 -2.009716e-17 8.456438e+02) (1.000750e+01 -4.667432e-20 2.375318e-02)) ((-4.228219e+01 -3.128403e+02 3.064856e+00) (-1.187659e-03 1.011672e+01 5.003749e-01))
0.0237037     	((6.111016e+01 -2.018571e-17 8.448172e+02) (9.932802e+00 -4.897961e-20 2.254938e-04)) ((-4.224086e+01 -3.131639e+02 3.055508e+00) (-1.127469e-05 1.005893e+01 4.966401e-01))
0.0240741     	((6.108137e+01 -1.982271e-17 8.401775e+02) (9.858150e+00 -5.129483e-20 -2.286163e-02)) ((-4.200888e+01 -3.109438e+02 3.054068e+00) (1.143082e-03 1.000109e+01 4.929075e-01))
0.0244444     	((6.104907e+01 -1.987985e-17 8.375122e+02) (9.784132e+00 -5.370669e-20 -4.626916e-02)) ((-4.187561e+01 -3.097924e+02 3.052454e+00) (2.313458e-03 9.944139e+00 4.892066e-01))
0.0248148     	((6.071634e+01 -2.071417e-17 8.372879e+02) (9.715877e+00 -5.658204e-20 -7.483530e-02)) ((-4.186439e+01 -3.114415e+02 3.035817e+00) (3.741765e-03 9.895604e+00 4.857938e-01))
0.0251852     	((5.824072e+01 -2.171685e-17 7.505054e+02) (9.645376e+00 -6.032335e-20 -9.288265e-02)) ((-3.752527e+01 -2.786985e+02 2.912036e+00) (4.644132e-03 9.839885e+00 4.822688e-01))
0.0255651     	((6.062449e+01 -2.101466e-17 8.328299e+02) (9.572968e+00 -6.438502e-20 -1.160432e-01)) ((-4.164149e+01 -3.085685e+02 3.031225e+00) (5.802160e-03 9.784610e+00 4.786484e-01))
0.0259449     	((6.049595e+01 -2.147645e-17 8.367669e+02) (9.502714e+00 -6.916556e-20 -1.390724e-01)) ((-4.183835e+01 -3.099754e+02 3.024798e+00) (6.953622e-03 9.731522e+00 4.751357e-01))
0.0263248     	((6.039850e+01 -2.187435e-17 8.362240e+02) (9.434624e+00 -7.486036e-20 -1.621701e-01)) ((-4.181120e+01 -3.093557e+02 3.019925e+00) (8.108506e-03 9.680833e+00 4.717312e-01))
0.0267047     	((6.003592e+01 -2.278659e-17 8.379255e+02) (9.368039e+00 -8.097424e-20 -1.856907e-01)) ((-4.189628e+01 -3.111417e+02 3.001796e+00) (9.284533e-03 9.632166e+00 4.684020e-01))
0.0270845     	((6.006665e+01 -2.279326e-17 8.371139e+02) (9.302185e+00 -8.699800e-20 -2.095733e-01)) ((-4.185569e+01 -3.102614e+02 3.003333e+00) (1.047867e-02 9.584735e+00 4.651093e-01))
0.0274644     	((5.970433e+01 -2.345702e-17 8.384794e+02) (9.235984e+00 -9.276539e-20 -2.338917e-01)) ((-4.192397e+01 -3.124620e+02 2.985216e+00) (1.169459e-02 9.537573e+00 4.617992e-01))
0.0278443     	((5.954125e+01 -2.344618e-17 8.364557e+02) (9.168559e+00 -9.683523e-20 -2.595964e-01)) ((-4.182279e+01 -3.120906e+02 2.977062e+00) (1.297982e-02 9.490392e+00 4.584279e-01))
0.0282241     	((5.924606e+01 -2.336883e-17 8.380841e+02) (9.105988e+00 -9.879358e-20 -2.914314e-01)) ((-4.190420e+01 -3.136376e+02 2.962303e+00) (1.457157e-02 9.451432e+00 4.552994e-01))
0.028604      	((5.542242e+01 -2.532088e-17 7.536233e+02) (9.041542e+00 -1.117365e-19 -3.123069e-01)) ((-3.768116e+01 -2.836225e+02 2.771121e+00) (1.561535e-02 9.405063e+00 4.520771e-01))
0.0289839     	((5.904631e+01 -2.274100e-17 8.384395e+02) (8.977752e+00 -1.280254e-19 -3.374594e-01)) ((-4.192198e+01 -3.140070e+02 2.952316e+00) (1.687297e-02 9.360980e+00 4.488876e-01))
0.0293637     	((5.890352e+01 -2.239127e-17 8.394847e+02) (8.917864e+00 -1.451353e-19 -3.620066e-01)) ((-4.197423e+01 -3.146882e+02 2.945176e+00) (1.810033e-02 9.320319e+00 4.458932e-01))
0.0297436     	((5.871874e+01 -2.213989e-17 8.401482e+02) (8.861392e+00 -1.478984e-19 -3.851535e-01)) ((-4.200741e+01 -3.153109e+02 2.935937e+00) (1.925767e-02 9.281862e+00 4.430696e-01))
0.0301235     	((5.902491e+01 -2.100548e-17 8.388694e+02) (8.809477e+00 -1.504328e-19 -4.068121e-01)) ((-4.194347e+01 -3.129584e+02 2.951246e+00) (2.034060e-02 9.246687e+00 4.404738e-01))
0.0305033     	((5.882354e+01 -2.061647e-17 8.393420e+02) (8.761533e+00 -1.526662e-19 -4.280431e-01)) ((-4.196710e+01 -3.134780e+02 2.941177e+00) (2.140216e-02 9.215170e+00 4.380767e-01))
0.0308832     	((5.852457e+01 -2.063416e-17 8.422292e+02) (8.717270e+00 -1.550197e-19 -4.493447e-01)) ((-4.211146e+01 -3.157543e+02 2.926229e+00) (2.246724e-02 9.187438e+00 4.358635e-01))
0.0312631     	((5.844448e+01 -2.031308e-17 8.364483e+02) (8.678000e+00 -1.567562e-19 -4.707227e-01)) ((-4.182241e+01 -3.130351e+02 2.922224e+00) (2.353613e-02 9.164716e+00 4.339000e-01))
0.0316429     	((5.839277e+01 -2.033899e-17 8.367492e+02) (8.648214e+00 -1.557076e-19 -4.975405e-01)) ((-4.183746e+01 -3.133735e+02 2.919639e+00) (2.487702e-02 9.154463e+00 4.324107e-01))
0.0320228     	((5.392738e+01 -2.082089e-17 7.513964e+02) (8.617662e+00 -1.597029e-19 -5.138573e-01)) ((-3.756982e+01 -2.807655e+02 2.696369e+00) (2.569287e-02 9.138035e+00 4.308831e-01))
0.0324027     	((5.794745e+01 -2.073223e-17 8.446471e+02) (8.587145e+00 -1.614447e-19 -5.363283e-01)) ((-4.223235e+01 -3.188708e+02 2.897372e+00) (2.681641e-02 9.124696e+00 4.293572e-01))
0.0327825     	((5.764681e+01 -2.045540e-17 8.386667e+02) (8.559016e+00 -1.635645e-19 -5.592191e-01)) ((-4.193333e+01 -3.164074e+02 2.882341e+00) (2.796095e-02 9.114172e+00 4.279508e-01))
0.0331624     	((5.752568e+01 -2.052533e-17 8.451343e+02) (8.532934e+00 -1.656687e-19 -5.831416e-01)) ((-4.225671e+01 -3.200929e+02 2.876284e+00) (2.915708e-02 9.106413e+00 4.266467e-01))
0.0335423     	((5.730337e+01 -2.031362e-17 8.465791e+02) (8.509077e+00 -1.678172e-19 -6.077796e-01)) ((-4.232896e+01 -3.211993e+02 2.865168e+00) (3.038898e-02 9.101323e+00 4.254539e-01))
0.0339221     	((5.705539e+01 -2.028833e-17 8.525286e+02) (8.487208e+00 -1.701495e-19 -6.329503e-01)) ((-4.262643e+01 -3.247436e+02 2.852770e+00) (3.164751e-02 9.098493e+00 4.243604e-01))
0.034302      	((5.696673e+01 -1.985357e-17 8.517337e+02) (8.467494e+00 -1.728668e-19 -6.587832e-01)) ((-4.258669e+01 -3.242060e+02 2.848337e+00) (3.293916e-02 9.098067e+00 4.233747e-01))
0.0346819     	((5.646830e+01 -1.986587e-17 8.534132e+02) (8.450676e+00 -1.753703e-19 -6.861438e-01)) ((-4.267066e+01 -3.261429e+02 2.823415e+00) (3.430719e-02 9.101190e+00 4.225338e-01))
0.0350617     	((5.660768e+01 -1.923027e-17 8.495620e+02) (8.441816e+00 -1.771460e-19 -7.196026e-01)) ((-4.247810e+01 -3.231425e+02 2.830384e+00) (3.598013e-02 9.115484e+00 4.220908e-01))
0.0354416     	((5.166734e+01 -1.914210e-17 7.675726e+02) (8.429883e+00 -1.795142e-19 -7.411281e-01)) ((-3.837863e+01 -2.899832e+02 2.583367e+00) (3.705641e-02 9.119783e+00 4.214942e-01))
0.0358215     	((5.678557e+01 -1.915414e-17 8.569052e+02) (8.416455e+00 -1.816171e-19 -7.682086e-01)) ((-4.284526e+01 -3.265373e+02 2.839278e+00) (3.841043e-02 9.124850e+00 4.208228e-01))
0.0362013     	((5.683088e+01 -1.893218e-17 8.532289e+02) (8.404339e+00 -1.834401e-19 -7.953337e-01)) ((-4.266144e+01 -3.245354e+02 2.841544e+00) (3.976669e-02 9.130716e+00 4.202169e-01))
0.0365812     	((5.618925e+01 -1.908698e-17 8.479700e+02) (8.392879e+00 -1.867346e-19 -8.225061e-01)) ((-4.239850e+01 -3.232895e+02 2.809462e+00) (4.112531e-02 9.136673e+00 4.196440e-01))
0.0369611     	((5.647826e+01 -1.889816e-17 8.505166e+02) (8.382449e+00 -1.886217e-19 -8.499468e-01)) ((-4.252583e+01 -3.240945e+02 2.823913e+00) (4.249734e-02 9.143241e+00 4.191224e-01))
0.0373409     	((5.636495e+01 -1.882419e-17 8.487098e+02) (8.373580e+00 -1.893571e-19 -8.785034e-01)) ((-4.243549e+01 -3.235605e+02 2.818248e+00) (4.392517e-02 9.151355e+00 4.186790e-01))
0.0377208     	((5.594980e+01 -1.908977e-17 8.514721e+02) (8.366932e+00 -1.905144e-19 -9.083553e-01)) ((-4.257360e+01 -3.262262e+02 2.797490e+00) (4.541777e-02 9.161695e+00 4.183466e-01))
0.0381007     	((5.557197e+01 -1.888114e-17 8.428198e+02) (8.370005e+00 -1.919332e-19 -9.461619e-01)) ((-4.214099e+01 -3.226188e+02 2.778599e+00) (4.730809e-02 9.185792e+00 4.185002e-01))
0.0384805     	((5.343403e+01 -1.907772e-17 8.181161e+02) (8.378971e+00 -1.936128e-19 -9.805747e-01)) ((-4.090580e+01 -3.130836e+02 2.671701e+00) (4.902874e-02 9.213463e+00 4.189485e-01))
0.0388604     	((5.150441e+01 -1.898127e-17 7.883476e+02) (8.387729e+00 -1.942161e-19 -1.010692e+00)) ((-3.941738e+01 -3.005821e+02 2.575220e+00) (5.053459e-02 9.237796e+00 4.193865e-01))
0.0392403     	((5.523733e+01 -1.909082e-17 8.534749e+02) (8.398621e+00 -1.945337e-19 -1.046050e+00)) ((-4.267375e+01 -3.288819e+02 2.761866e+00) (5.230248e-02 9.266507e+00 4.199310e-01))
0.0396201     	((5.519732e+01 -1.920337e-17 8.593794e+02) (8.416464e+00 -1.953284e-19 -1.083029e+00)) ((-4.296897e+01 -3.320134e+02 2.759866e+00) (5.415145e-02 9.302713e+00 4.208232e-01))
0.04          	((5.512942e+01 -1.903068e-17 8.582612e+02) (8.440861e+00 -1.968062e-19 -1.121383e+00)) ((-4.291306e+01 -3.313802e+02 2.756471e+00) (5.606913e-02 9.345950e+00 4.220431e-01))
0.0403846     	((5.515474e+01 -1.903123e-17 8.627756e+02) (8.472093e+00 -1.993966e-19 -1.161865e+00)) ((-4.313878e+01 -3.336264e+02 2.757737e+00) (5.809325e-02 9.396803e+00 4.236046e-01))
0.0407692     	((5.490836e+01 -1.904829e-17 8.634517e+02) (8.509101e+00 -2.017310e-19 -1.204045e+00)) ((-4.317259e+01 -3.344740e+02 2.745418e+00) (6.020227e-02 9.453742e+00 4.254551e-01))
0.0411538     	((5.474466e+01 -1.899122e-17 8.638042e+02) (8.550424e+00 -2.020850e-19 -1.247559e+00)) ((-4.319021e+01 -3.350059e+02 2.737233e+00) (6.237793e-02 9.514995e+00 4.275212e-01))
0.0415385     	((5.414882e+01 -1.896025e-17 8.572090e+02) (8.595418e+00 -1.990405e-19 -1.292061e+00)) ((-4.286045e+01 -3.327842e+02 2.707441e+00) (6.460307e-02 9.579695e+00 4.297709e-01))
0.0419231     	((5.347120e+01 -1.887498e-17 8.492964e+02) (8.645661e+00 -1.955425e-19 -1.340390e+00)) ((-4.246482e+01 -3.294296e+02 2.673560e+00) (6.701951e-02 9.651124e+00 4.322831e-01))
0.0423077     	((4.841406e+01 -1.890646e-17 7.779870e+02) (8.694674e+00 -1.915854e-19 -1.374979e+00)) ((-3.889935e+01 -2.981856e+02 2.420703e+00) (6.874897e-02 9.712261e+00 4.347337e-01))
0.0426923     	((5.430981e+01 -1.872175e-17 8.661836e+02) (8.744352e+00 -1.852632e-19 -1.415371e+00)) ((-4.330918e+01 -3.374990e+02 2.715491e+00) (7.076854e-02 9.776227e+00 4.372176e-01))
0.0430769     	((5.414198e+01 -1.861264e-17 8.657254e+02) (8.802762e+00 -1.742556e-19 -1.457021e+00)) ((-4.328627e+01 -3.375767e+02 2.707099e+00) (7.285103e-02 9.848810e+00 4.401381e-01))
0.0434615     	((5.406205e+01 -1.852661e-17 8.679068e+02) (8.870627e+00 -1.625717e-19 -1.499334e+00)) ((-4.339534e+01 -3.387693e+02 2.703103e+00) (7.496670e-02 9.930193e+00 4.435314e-01))
0.0438462     	((5.325421e+01 -1.840119e-17 8.589971e+02) (8.945803e+00 -1.498795e-19 -1.540958e+00)) ((-4.294986e+01 -3.349532e+02 2.662711e+00) (7.704790e-02 1.001717e+01 4.472902e-01))
0.0442308     	((5.375511e+01 -1.820434e-17 8.700972e+02) (9.023374e+00 -1.359703e-19 -1.581213e+00)) ((-4.350486e+01 -3.400263e+02 2.687756e+00) (7.906067e-02 1.010400e+01 4.511687e-01))
0.0446154     	((5.344350e+01 -1.804161e-17 8.696336e+02) (9.104384e+00 -1.211946e-19 -1.618800e+00)) ((-4.348168e+01 -3.400251e+02 2.672175e+00) (8.093998e-02 1.019085e+01 4.552192e-01))
0.045         	((5.281897e+01 -1.789457e-17 8.647935e+02) (9.191158e+00 -1.035399e-19 -1.653761e+00)) ((-4.323967e+01 -3.382368e+02 2.640948e+00) (8.268805e-02 1.028031e+01 4.595579e-01))
0.0453846     	((5.313289e+01 -1.757257e-17 8.728637e+02) (9.286751e+00 -9.077342e-20 -1.691540e+00)) ((-4.364318e+01 -3.419976e+02 2.656644e+00) (8.457702e-02 1.037941e+01 4.643376e-01))
0.0457692     	((4.537808e+01 -4.564027e-17 7.716069e+02) (9.383731e+00 -8.378495e-20 -1.717156e+00)) ((-3.858034e+01 -2.957226e+02 2.268904e+00) (8.585782e-02 1.047174e+01 4.691866e-01))
0.0461538     	((5.253410e+01 -1.929256e-17 8.701532e+02) (9.476413e+00 -7.584518e-20 -1.750579e+00)) ((-4.350766e+01 -3.417089e+02 2.626705e+00) (8.752897e-02 1.056459e+01 4.738206e-01))
0.0465385     	((5.244930e+01 -1.940959e-17 8.716104e+02) (9.569367e+00 -6.914829e-20 -1.787076e+00)) ((-4.358052e+01 -3.430483e+02 2.622465e+00) (8.935381e-02 1.065972e+01 4.784684e-01))
0.0469231     	((5.238756e+01 -1.957022e-17 8.734923e+02) (9.660931e+00 -6.513309e-20 -1.825585e+00)) ((-4.367462e+01 -3.443465e+02 2.619378e+00) (9.127926e-02 1.075431e+01 4.830465e-01))
0.0473077     	((5.220059e+01 -1.984821e-17 8.746258e+02) (9.750962e+00 -6.278540e-20 -1.866020e+00)) ((-4.373129e+01 -3.453024e+02 2.610029e+00) (9.330099e-02 1.084787e+01 4.875481e-01))
0.0476923     	((5.220214e+01 -1.977820e-17 8.788044e+02) (9.839634e+00 -6.099969e-20 -1.908081e+00)) ((-4.394022e+01 -3.475374e+02 2.610107e+00) (9.540403e-02 1.094015e+01 4.919817e-01))
0.0480769     	((5.184478e+01 -2.053572e-17 8.791729e+02) (9.929140e+00 -6.020882e-20 -1.952030e+00)) ((-4.395865e+01 -3.481462e+02 2.592239e+00) (9.760152e-02 1.103366e+01 4.964570e-01))
0.0484615     	((5.122057e+01 -2.210180e-17 8.748615e+02) (1.002303e+01 -6.005248e-20 -1.999381e+00)) ((-4.374308e+01 -3.464689e+02 2.561028e+00) (9.996906e-02 1.113337e+01 5.011514e-01))
0.0488462     	((5.170039e+01 -2.090268e-17 8.859109e+02) (1.012419e+01 -5.774224e-20 -2.055362e+00)) ((-4.429554e+01 -3.517740e+02 2.585020e+00) (1.027681e-01 1.124600e+01 5.062094e-01))
0.0492308     	((4.315692e+01 -3.452073e-17 7.822278e+02) (1.022544e+01 -6.101003e-20 -2.097232e+00)) ((-3.911139e+01 -3.025007e+02 2.157846e+00) (1.048616e-01 1.135041e+01 5.112722e-01))
0.0496154     	((5.151723e+01 -2.101108e-17 8.911482e+02) (1.032119e+01 -6.024577e-20 -2.145190e+00)) ((-4.455741e+01 -3.553047e+02 2.575862e+00) (1.072595e-01 1.145316e+01 5.160595e-01))
0.05          	((5.128140e+01 -2.152326e-17 8.907676e+02) (1.041949e+01 -5.934312e-20 -2.192795e+00)) ((-4.453838e+01 -3.555817e+02 2.564070e+00) (1.096398e-01 1.155834e+01 5.209746e-01))
0.0503846     	((5.016092e+01 -2.358119e-17 8.806635e+02) (1.052047e+01 -5.865774e-20 -2.238596e+00)) ((-4.403317e+01 -3.512713e+02 2.508046e+00) (1.119298e-01 1.166495e+01 5.260234e-01))
0.0507692     	((5.057203e+01 -2.320912e-17 8.892757e+02) (1.062506e+01 -5.714869e-20 -2.281020e+00)) ((-4.446378e+01 -3.558236e+02 2.528602e+00) (1.140510e-01 1.177281e+01 5.312530e-01))
0.0511538     	((5.034896e+01 -2.383417e-17 8.908377e+02) (1.072311e+01 -5.525160e-20 -2.319068e+00)) ((-4.454188e+01 -3.570586e+02 2.517448e+00) (1.159534e-01 1.187121e+01 5.361554e-01))
0.0515385     	((4.946659e+01 -2.509227e-17 8.837642e+02) (1.081048e+01 -5.592985e-20 -2.355586e+00)) ((-4.418821e+01 -3.543276e+02 2.473329e+00) (1.177793e-01 1.195879e+01 5.405241e-01))
0.0519231     	((4.984684e+01 -2.367164e-17 8.926362e+02) (1.088754e+01 -5.884148e-20 -2.392636e+00)) ((-4.463181e+01 -3.590678e+02 2.492342e+00) (1.196318e-01 1.203783e+01 5.443771e-01))
0.0523077     	((4.671502e+01 -2.632062e-17 8.606984e+02) (1.095876e+01 -6.242088e-20 -2.432117e+00)) ((-4.303492e+01 -3.435671e+02 2.335751e+00) (1.216059e-01 1.211384e+01 5.479378e-01))