# Forces      
# CofR        : (0.000000e+00 0.000000e+00 -1.000000e+00)
# Time        forces(pressure viscous)	moments(pressure viscous)
0             	((1.136868e-13 6.764460e-14 3.410605e-13) (1.245201e+01 -4.300813e-18 9.320872e-01)) ((-2.248934e-14 1.136868e-13 2.716866e-14) (-2.300107e-18 1.199348e+01 8.994684e-17))
1.19976e-05   	((2.160898e+05 2.690647e-12 4.704173e+05) (1.264749e+01 -4.148603e-18 8.408335e-01)) ((-1.639877e-12 1.015259e+05 -2.126078e-12) (-8.205806e-18 1.220621e+01 9.619521e-17))
2.63878e-05   	((2.639825e+04 4.440172e-13 8.449392e+04) (1.273697e+01 -4.149732e-18 8.143513e-01)) ((-7.275467e-13 5.885696e+03 -2.927690e-13) (-9.463442e-18 1.230094e+01 9.753967e-17))
4.36511e-05   	((1.561344e+04 2.821674e-13 5.492320e+04) (1.286616e+01 -3.764698e-18 8.080604e-01)) ((-5.189822e-13 2.238577e+03 -1.750855e-13) (-1.005687e-17 1.242951e+01 9.884359e-17))
6.43527e-05   	((1.048735e+04 1.998564e-13 3.407169e+04) (1.303398e+01 -3.684533e-18 7.989899e-01)) ((-2.917572e-13 2.285522e+03 -1.065732e-13) (-1.021998e-17 1.259911e+01 1.000315e-16))
8.91792e-05   	((7.608995e+03 1.528192e-13 2.380135e+04) (1.324999e+01 -3.283486e-18 7.945254e-01)) ((-1.992152e-13 1.845787e+03 -7.132926e-14) (-1.060409e-17 1.281560e+01 1.015401e-16))
0.000118941   	((5.655065e+03 1.314513e-13 2.417381e+04) (1.353269e+01 -3.091630e-18 7.943525e-01)) ((-1.543424e-13 -1.542451e+03 -4.560453e-14) (-1.034713e-17 1.309629e+01 1.026265e-16))
0.000154634   	((4.600533e+03 1.156221e-13 1.197776e+04) (1.390255e+01 -2.746386e-18 7.979804e-01)) ((-9.377178e-14 1.467409e+03 -2.912822e-14) (-1.070408e-17 1.346242e+01 1.042827e-16))
0.000197405   	((3.467852e+03 8.729810e-14 1.014995e+04) (1.439472e+01 -2.382073e-18 8.025942e-01)) ((-8.143669e-14 8.593290e+02 -2.240914e-14) (-1.099831e-17 1.394935e+01 1.063380e-16))
0.000248707   	((2.906388e+03 7.879336e-14 1.235767e+04) (1.506591e+01 -1.988077e-18 8.075097e-01)) ((-1.828403e-14 -1.100877e+03 -1.320950e-14) (-1.236944e-17 1.461424e+01 1.091788e-16))
0.000310237   	((2.445038e+03 7.106576e-14 7.701783e+03) (1.599253e+01 -1.569649e-18 8.257324e-01)) ((-4.278713e-14 -3.599798e+01 -9.520430e-15) (-1.279458e-17 1.552715e+01 1.127849e-16))
0.000383982   	((2.021489e+03 6.377821e-14 6.659447e+03) (1.730080e+01 -1.533749e-18 8.610395e-01)) ((-3.270062e-14 -1.080648e+02 -5.684330e-15) (-1.368152e-17 1.681036e+01 1.186368e-16))
0.000472342   	((1.738804e+03 6.280912e-14 6.955906e+03) (1.901007e+01 -1.579070e-18 9.231631e-01)) ((1.836173e-14 -7.023072e+02 2.954058e-15) (-1.775956e-17 1.848405e+01 1.313562e-16))
0.000577897   	((1.581795e+03 6.823513e-14 4.781136e+03) (2.091760e+01 -1.438561e-18 9.999790e-01)) ((-4.380616e-14 -9.347720e+01 5.018683e-15) (-1.844975e-17 2.034762e+01 1.440122e-16))
0.000704014   	((1.448349e+03 6.398827e-14 3.760323e+03) (2.298683e+01 -1.361923e-18 1.082592e+00)) ((-3.728560e-14 1.248559e+02 5.831511e-15) (-1.991148e-17 2.236759e+01 1.596125e-16))
0.000854764   	((1.264823e+03 7.779908e-14 4.197551e+03) (2.514919e+01 -1.520370e-18 1.148933e+00)) ((-4.029095e-14 -3.101664e+02 1.944040e-14) (-2.735864e-17 2.449057e+01 1.877401e-16))
0.00103538    	((1.245436e+03 6.760689e-14 3.190940e+03) (2.732014e+01 -1.301323e-18 1.219227e+00)) ((-1.271694e-13 -7.998123e+01 3.900809e-15) (-1.528836e-17 2.663048e+01 2.054401e-16))
0.00125089    	((1.248657e+03 5.306791e-14 3.004358e+03) (2.941197e+01 3.468216e-20 1.230432e+00)) ((-2.554309e-14 -2.128378e+01 3.624970e-15) (-1.848803e-17 2.872400e+01 2.211079e-16))
0.00150772    	((3.570966e+03 9.986240e-14 6.615059e+02) (3.147796e+01 6.553642e-19 1.194987e+00)) ((5.417443e-15 2.103427e+03 7.583641e-15) (-2.207622e-17 3.081557e+01 2.478038e-16))
0.00181593    	((5.592878e+02 3.561871e-14 2.679858e+03) (3.293877e+01 -2.996679e-20 1.136482e+00)) ((-5.086748e-14 -4.330565e+02 -1.032404e-15) (-2.016471e-17 3.232913e+01 2.561323e-16))
0.00217248    	((5.340607e+02 2.941960e-14 1.724712e+03) (3.383012e+01 -1.462744e-18 1.101501e+00)) ((1.514914e-15 -1.899950e+02 1.207266e-15) (-2.078581e-17 3.327023e+01 2.570979e-16))
0.00257765    	((4.113398e+02 3.046627e-14 1.739445e+03) (3.423943e+01 -4.418068e-19 1.062177e+00)) ((-4.145744e-14 -2.397152e+02 4.223792e-16) (-1.725302e-17 3.371644e+01 2.673505e-16))
0.00303613    	((3.671183e+02 3.233616e-14 1.484394e+03) (3.429085e+01 -1.181179e-18 1.022556e+00)) ((-2.376918e-14 -1.632429e+02 4.154374e-15) (-8.341790e-18 3.379195e+01 2.694780e-16))
0.00353507    	((4.306212e+02 3.526417e-14 8.956766e+02) (3.389466e+01 -7.926189e-19 9.093978e-01)) ((-1.472329e-14 -1.813242e+00 5.638353e-15) (-1.144091e-17 3.348964e+01 2.818428e-16))
0.00401933    	((6.088385e+02 4.248067e-14 8.348060e+02) (3.354464e+01 -1.071529e-18 8.637735e-01)) ((-1.861975e-14 7.923289e+01 6.737441e-15) (-8.037814e-18 3.315087e+01 2.862513e-16))
0.00440911    	((3.261113e+02 3.550092e-14 1.470597e+03) (3.315557e+01 -2.921865e-19 8.266057e-01)) ((-1.858324e-14 -3.333809e+02 5.699997e-15) (-5.899641e-18 3.278375e+01 2.835142e-16))
0.00477168    	((3.227378e+02 3.701045e-14 8.392247e+02) (3.272919e+01 -2.756863e-19 8.071492e-01)) ((-1.255750e-14 -1.667035e+01 7.929177e-15) (-4.790035e-18 3.237354e+01 2.742669e-16))
0.00512583    	((2.742215e+02 3.053536e-14 1.439871e+03) (3.228047e+01 8.838212e-19 7.648090e-01)) ((-1.608734e-14 -3.891973e+02 2.779756e-15) (-2.213510e-18 3.195690e+01 2.554786e-16))
0.00547174    	((2.740380e+02 3.248311e-14 1.447330e+03) (3.186157e+01 7.483912e-19 7.421908e-01)) ((-1.976968e-14 -3.087224e+02 5.740158e-15) (-1.639623e-18 3.155070e+01 2.454502e-16))
0.00581765    	((2.657043e+02 2.813854e-14 1.691802e+03) (3.146442e+01 -9.038039e-19 7.425139e-01)) ((2.591904e-14 -6.009788e+02 6.804064e-15) (-9.024475e-18 3.115731e+01 2.484562e-16))
0.00615533    	((2.471889e+02 2.989006e-14 1.976746e+03) (3.108941e+01 -5.146272e-19 7.401149e-01)) ((-1.369223e-14 -6.196402e+02 4.246316e-15) (-1.460416e-17 3.078039e+01 2.458205e-16))
0.00648496    	((1.847323e+02 3.517451e-14 1.538231e+03) (3.072580e+01 -9.062771e-19 7.198825e-01)) ((-2.311828e-14 -5.493704e+02 9.619729e-15) (-1.419707e-17 3.042857e+01 2.473326e-16))
0.0067853     	((2.161564e+02 3.120071e-14 8.659528e+02) (3.039403e+01 -1.717013e-18 7.279920e-01)) ((-4.361074e-15 -1.310059e+02 7.265160e-15) (-1.531126e-17 3.009120e+01 2.310261e-16))
0.00706646    	((2.266452e+02 3.034034e-14 5.369231e+02) (3.010112e+01 -1.384055e-18 7.305270e-01)) ((-2.059817e-15 -1.908145e+01 6.637573e-15) (-1.626827e-17 2.979369e+01 2.179590e-16))
0.00733041    	((1.540539e+02 2.866914e-14 1.501185e+03) (2.982906e+01 2.655573e-19 7.178109e-01)) ((-2.073468e-14 -5.862828e+02 3.993017e-15) (-1.529993e-17 2.952831e+01 2.058356e-16))
0.0075838     	((1.894776e+02 3.215151e-14 8.339523e+02) (2.958101e+01 3.045397e-20 7.125165e-01)) ((-1.304788e-14 -1.125111e+02 8.546970e-15) (-1.518360e-17 2.927930e+01 1.986630e-16))
0.00782258    	((1.825103e+02 3.069481e-14 9.330552e+02) (2.935162e+01 7.223431e-19 6.987619e-01)) ((-5.228594e-15 -1.988366e+02 8.108247e-15) (-1.747882e-17 2.905772e+01 1.963974e-16))
0.00805676    	((1.917624e+02 2.967580e-14 5.754620e+02) (2.913774e+01 1.528420e-18 7.035670e-01)) ((-1.610094e-14 -1.388865e+02 8.535128e-15) (-1.674189e-17 2.884324e+01 1.995159e-16))
0.00831639    	((1.347087e+02 2.744979e-14 1.480397e+03) (2.889607e+01 2.324677e-18 7.080506e-01)) ((-9.470627e-15 -5.972936e+02 4.697351e-15) (-1.660008e-17 2.859537e+01 1.999646e-16))
0.0085881     	((1.628715e+02 3.012182e-14 1.152958e+03) (2.865815e+01 2.361393e-18 7.147646e-01)) ((-1.181944e-14 -3.268982e+02 6.998073e-15) (-1.552457e-17 2.834868e+01 1.995037e-16))
0.00888842    	((1.122298e+02 1.708273e-14 2.064224e+03) (2.841941e+01 2.603995e-18 7.138554e-01)) ((-2.403806e-14 -9.901730e+02 -8.271968e-15) (-6.750545e-18 2.810876e+01 1.822338e-16))
0.00920589    	((1.570256e+02 3.107903e-14 8.345527e+02) (2.818138e+01 2.555707e-18 7.218369e-01)) ((-1.161733e-14 -1.589288e+02 8.380365e-15) (-3.161613e-18 2.785842e+01 1.741418e-16))
0.00951429    	((1.603374e+02 3.225968e-14 7.703792e+02) (2.794766e+01 2.520896e-18 7.259385e-01)) ((-1.265758e-14 -1.618400e+02 8.751643e-15) (-5.107501e-18 2.762027e+01 1.738723e-16))
0.00981389    	((1.439667e+02 2.795180e-14 9.493992e+02) (2.772610e+01 1.738327e-18 7.325592e-01)) ((1.977465e-14 -3.583808e+02 9.284488e-15) (-9.123153e-18 2.739283e+01 1.771514e-16))
0.0100968     	((9.993151e+01 1.900382e-14 1.635771e+03) (2.752790e+01 1.813036e-18 7.479448e-01)) ((-2.439513e-15 -7.649129e+02 -2.825176e-15) (-1.041305e-17 2.717869e+01 1.771667e-16))
0.0104063     	((1.182349e+02 2.762263e-14 1.277531e+03) (2.730688e+01 7.769861e-19 7.466027e-01)) ((-5.288608e-15 -5.094211e+02 5.902046e-15) (-1.060158e-17 2.695746e+01 1.787302e-16))
0.0107158     	((9.195205e+01 2.557944e-14 1.610481e+03) (2.710518e+01 -1.656501e-19 7.547148e-01)) ((-8.319731e-16 -7.787119e+02 4.483858e-15) (-1.052635e-17 2.674653e+01 1.815063e-16))
0.0109971     	((1.346824e+02 2.910002e-14 9.610004e+02) (2.690727e+01 -3.284605e-19 7.536647e-01)) ((-9.353956e-15 -2.884519e+02 7.006507e-15) (-1.074982e-17 2.654920e+01 1.810278e-16))
0.0112785     	((5.755198e+01 2.352160e-14 1.825662e+03) (2.672618e+01 -1.811792e-19 7.408954e-01)) ((6.102034e-15 -1.114109e+03 1.492756e-15) (-1.161812e-17 2.638241e+01 1.812362e-16))
0.0115692     	((1.344844e+02 2.883025e-14 9.854769e+02) (2.651026e+01 -1.651297e-19 7.406864e-01)) ((-8.225820e-15 -3.004476e+02 6.796125e-15) (-1.208565e-17 2.616603e+01 1.794546e-16))
0.0118814     	((1.219592e+02 2.846405e-14 1.039406e+03) (2.627468e+01 -4.628291e-20 7.128714e-01)) ((-8.293193e-15 -3.421451e+02 6.630814e-15) (-1.231216e-17 2.595595e+01 1.756253e-16))
0.0121351     	((1.788795e+01 2.071284e-14 2.370187e+03) (2.605196e+01 7.364377e-20 6.738751e-01)) ((2.998500e-17 -1.399598e+03 -1.926361e-16) (-1.209636e-17 2.577095e+01 1.732607e-16))
0.0124063     	((3.585380e+01 2.197861e-14 2.093118e+03) (2.580398e+01 1.385307e-19 6.659359e-01)) ((1.814054e-15 -1.196447e+03 1.214123e-15) (-1.167768e-17 2.553147e+01 1.762327e-16))
0.0125829     	((1.037147e+02 2.707239e-14 1.246474e+03) (2.566001e+01 1.843161e-19 6.623554e-01)) ((-5.833526e-15 -5.187317e+02 5.450865e-15) (-1.148483e-17 2.539002e+01 1.767170e-16))
0.0127515     	((1.057248e+02 2.718154e-14 1.223336e+03) (2.554261e+01 2.367542e-19 6.542568e-01)) ((-6.021524e-15 -5.004444e+02 5.552785e-15) (-1.161666e-17 2.527829e+01 1.759187e-16))
0.0129201     	((1.026712e+02 3.203249e-14 8.025579e+02) (2.543858e+01 2.479384e-19 6.548528e-01)) ((-1.537962e-14 -3.431982e+02 7.818756e-15) (-1.128271e-17 2.517626e+01 1.750146e-16))
0.0130928     	((1.063487e+02 2.749932e-14 1.186937e+03) (2.532563e+01 3.071131e-19 6.511703e-01)) ((-6.606716e-15 -4.802021e+02 5.771971e-15) (-1.129234e-17 2.506696e+01 1.743149e-16))
0.0132699     	((1.104526e+02 2.722469e-14 1.192481e+03) (2.521462e+01 4.029395e-19 6.462435e-01)) ((-5.909437e-15 -4.874658e+02 5.603985e-15) (-1.136316e-17 2.496035e+01 1.735913e-16))
0.0134518     	((9.016675e+01 2.558068e-14 1.464637e+03) (2.510755e+01 5.504826e-19 6.382984e-01)) ((-3.901480e-15 -6.788175e+02 4.226101e-15) (-1.150333e-17 2.485936e+01 1.728570e-16))
0.0136287     	((6.076088e+01 2.217396e-14 1.972427e+03) (2.501258e+01 7.309274e-19 6.264143e-01)) ((8.683072e-16 -1.046179e+03 1.464118e-15) (-1.168542e-17 2.477297e+01 1.721092e-16))
0.0137964     	((8.675940e+01 2.491917e-14 1.566172e+03) (2.493467e+01 9.392533e-19 6.098235e-01)) ((-2.872319e-15 -7.565610e+02 3.629881e-15) (-1.190597e-17 2.470606e+01 1.713565e-16))
0.0139555     	((1.014292e+02 2.611586e-14 1.389488e+03) (2.486709e+01 1.044304e-18 5.946699e-01)) ((-4.197168e-15 -6.331429e+02 4.550877e-15) (-1.225629e-17 2.464865e+01 1.703885e-16))
0.0141145     	((1.523154e+02 2.739817e-14 1.231844e+03) (2.479388e+01 9.576429e-19 5.864920e-01)) ((-3.723561e-15 -5.469923e+02 4.964677e-15) (-1.300155e-17 2.458201e+01 1.686907e-16))
0.0142736     	((1.152363e+02 2.678106e-14 1.306591e+03) (2.473187e+01 1.112564e-18 5.617531e-01)) ((-4.716068e-15 -5.741526e+02 4.940480e-15) (-1.396552e-17 2.453506e+01 1.668751e-16))
0.0144327     	((9.659235e+01 2.653082e-14 1.322348e+03) (2.468344e+01 1.545694e-18 5.226432e-01)) ((-5.157479e-15 -5.741658e+02 5.070904e-15) (-1.539313e-17 2.450967e+01 1.649065e-16))
0.0145917     	((9.851758e+01 2.671784e-14 1.293466e+03) (2.465335e+01 2.145427e-18 4.689587e-01)) ((-5.346963e-15 -5.569958e+02 5.187717e-15) (-1.724004e-17 2.451069e+01 1.627666e-16))
0.0147556     	((9.885734e+01 2.687137e-14 1.281350e+03) (2.464300e+01 2.961171e-18 3.989424e-01)) ((-5.444593e-15 -5.494972e+02 5.298323e-15) (-1.967218e-17 2.454093e+01 1.603881e-16))
0.0149195     	((9.888963e+01 2.725132e-14 1.264594e+03) (2.465308e+01 4.156578e-18 3.114824e-01)) ((-5.820586e-15 -5.428849e+02 5.468944e-15) (-2.289195e-17 2.460167e+01 1.579058e-16))
0.0150834     	((9.394587e+01 3.755801e-14 8.802701e+02) (2.469288e+01 5.077248e-18 2.102173e-01)) ((-1.606133e-14 -3.894542e+02 1.026565e-14) (-2.624890e-17 2.470086e+01 1.550709e-16))
0.0152473     	((1.029010e+02 2.709470e-14 1.223586e+03) (2.473384e+01 5.621399e-18 1.018786e-01)) ((-5.634841e-15 -5.157220e+02 5.520031e-15) (-2.967935e-17 2.480559e+01 1.517075e-16))
0.015417      	((1.011982e+02 2.718994e-14 1.226946e+03) (2.477102e+01 6.750997e-18 -7.187145e-03)) ((-5.851977e-15 -5.130494e+02 5.606654e-15) (-3.400706e-17 2.490753e+01 1.486867e-16))
0.0155868     	((1.023973e+02 2.730976e-14 1.210102e+03) (2.479542e+01 7.875407e-18 -1.139841e-01)) ((-5.882575e-15 -5.057361e+02 5.688801e-15) (-3.795901e-17 2.499522e+01 1.464572e-16))
0.0157565     	((1.021717e+02 2.737332e-14 1.208965e+03) (2.481975e+01 9.378061e-18 -2.250570e-01)) ((-5.993806e-15 -5.046880e+02 5.701431e-15) (-4.167234e-17 2.508515e+01 1.454425e-16))
0.0159262     	((1.027649e+02 2.823695e-14 1.167219e+03) (2.485294e+01 1.136697e-17 -3.488960e-01)) ((-6.717882e-15 -4.865029e+02 6.129835e-15) (-4.501277e-17 2.519100e+01 1.458672e-16))
0.0161034     	((1.023354e+02 2.740310e-14 1.186734e+03) (2.489494e+01 1.311803e-17 -4.867942e-01)) ((-6.010501e-15 -4.873050e+02 5.807484e-15) (-4.678563e-17 2.531378e+01 1.477293e-16))
0.0162805     	((1.035085e+02 2.746197e-14 1.175524e+03) (2.494265e+01 1.421669e-17 -6.323091e-01)) ((-6.012569e-15 -4.843010e+02 5.806922e-15) (-4.635317e-17 2.544669e+01 1.508859e-16))
0.0164576     	((1.029257e+02 2.729689e-14 1.198675e+03) (2.499087e+01 1.533130e-17 -7.835020e-01)) ((-5.773124e-15 -5.013222e+02 5.655131e-15) (-4.404673e-17 2.558335e+01 1.557365e-16))
0.0166186     	((1.004001e+02 2.714662e-14 1.213915e+03) (2.503704e+01 1.639082e-17 -9.263557e-01)) ((-5.654775e-15 -5.108786e+02 5.580785e-15) (-4.002761e-17 2.571306e+01 1.617846e-16))
0.0167723     	((9.971649e+01 2.720016e-14 1.201826e+03) (2.507932e+01 1.729952e-17 -1.065505e+00)) ((-5.783615e-15 -5.011776e+02 5.662328e-15) (-3.416680e-17 2.583679e+01 1.689141e-16))
0.016919      	((1.001443e+02 2.723494e-14 1.186368e+03) (2.512212e+01 1.763246e-17 -1.207160e+00)) ((-5.819354e-15 -4.893634e+02 5.749041e-15) (-2.619189e-17 2.596224e+01 1.767381e-16))
0.0170591     	((1.008358e+02 2.734677e-14 1.179349e+03) (2.516294e+01 1.783059e-17 -1.349018e+00)) ((-5.908461e-15 -4.893202e+02 5.756285e-15) (-1.661076e-17 2.608572e+01 1.853164e-16))
0.0171928     	((1.005022e+02 2.737846e-14 1.174167e+03) (2.519804e+01 1.804839e-17 -1.487014e+00)) ((-5.953611e-15 -4.853890e+02 5.805248e-15) (-5.628690e-18 2.620122e+01 1.945803e-16))
0.0173204     	((9.952506e+01 2.919058e-14 1.120858e+03) (2.522926e+01 1.854523e-17 -1.615889e+00)) ((-7.990830e-15 -4.674982e+02 6.631834e-15) (6.402187e-18 2.630773e+01 2.043631e-16))
0.017448      	((9.204223e+01 4.076827e-14 7.804288e+02) (2.527083e+01 2.001321e-17 -1.723903e+00)) ((-2.106754e-14 -3.339136e+02 1.226622e-14) (1.954528e-17 2.641433e+01 2.145284e-16))
0.0175695     	((1.011785e+02 2.800716e-14 1.151603e+03) (2.527947e+01 2.123982e-17 -1.810258e+00)) ((-6.610039e-15 -4.779831e+02 6.106000e-15) (3.417526e-17 2.647482e+01 2.257750e-16))
0.017691      	((9.995204e+01 2.777207e-14 1.170433e+03) (2.526790e+01 2.226543e-17 -1.873034e+00)) ((-6.415322e-15 -4.867046e+02 5.987854e-15) (5.088278e-17 2.650187e+01 2.378712e-16))
0.0178193     	((1.005014e+02 2.775395e-14 1.168122e+03) (2.523308e+01 2.331876e-17 -1.916861e+00)) ((-6.369378e-15 -4.840681e+02 6.011858e-15) (7.011486e-17 2.649501e+01 2.514946e-16))
0.0179476     	((1.004102e+02 2.802411e-14 1.159614e+03) (2.518664e+01 2.454329e-17 -1.949712e+00)) ((-6.740145e-15 -4.813868e+02 6.100310e-15) (9.012785e-17 2.646998e+01 2.658018e-16))
0.0180758     	((1.004748e+02 2.791797e-14 1.161659e+03) (2.514220e+01 2.449859e-17 -1.974001e+00)) ((-6.622883e-15 -4.807995e+02 6.068500e-15) (1.119189e-16 2.644235e+01 2.794589e-16))
0.0182133     	((1.008098e+02 2.774884e-14 1.175362e+03) (2.510222e+01 2.410608e-17 -2.012116e+00)) ((-6.291641e-15 -4.912880e+02 5.932742e-15) (1.348710e-16 2.642692e+01 2.933402e-16))
0.0183507     	((9.950088e+01 2.753687e-14 1.187927e+03) (2.507119e+01 2.368852e-17 -2.056209e+00)) ((-6.099004e-15 -4.964647e+02 5.831407e-15) (1.572636e-16 2.642387e+01 3.066206e-16))
0.0185007     	((1.000643e+02 2.750933e-14 1.177859e+03) (2.504363e+01 2.263845e-17 -2.104627e+00)) ((-6.085225e-15 -4.859651e+02 5.873904e-15) (1.812015e-16 2.642735e+01 3.198501e-16))
0.018637      	((1.003386e+02 2.763455e-14 1.162075e+03) (2.502353e+01 1.959296e-17 -2.157371e+00)) ((-6.179485e-15 -4.799132e+02 5.936015e-15) (2.059450e-16 2.644036e+01 3.304570e-16))
0.0187884     	((1.000933e+02 2.754383e-14 1.182134e+03) (2.500682e+01 1.627354e-17 -2.222696e+00)) ((-6.052078e-15 -4.938766e+02 5.817004e-15) (2.336540e-16 2.646471e+01 3.413371e-16))
0.0189399     	((9.930178e+01 2.740601e-14 1.187630e+03) (2.499550e+01 1.302449e-17 -2.295866e+00)) ((-5.907085e-15 -4.949526e+02 5.781292e-15) (2.617446e-16 2.649916e+01 3.515109e-16))
0.0190913     	((9.977246e+01 2.749035e-14 1.177826e+03) (2.498804e+01 1.052828e-17 -2.371573e+00)) ((-5.998849e-15 -4.892777e+02 5.830554e-15) (2.885522e-16 2.653923e+01 3.612638e-16))
0.0192428     	((9.960621e+01 2.747452e-14 1.178665e+03) (2.498436e+01 8.699245e-18 -2.446340e+00)) ((-5.965390e-15 -4.901836e+02 5.821488e-15) (3.135487e-16 2.658300e+01 3.706292e-16))
0.0193942     	((9.913273e+01 2.745421e-14 1.182760e+03) (2.498527e+01 6.965937e-18 -2.519722e+00)) ((-5.926260e-15 -4.938873e+02 5.798014e-15) (3.372964e-16 2.663118e+01 3.794163e-16))
0.0195154     	((9.866152e+01 2.757379e-14 1.169341e+03) (2.498874e+01 5.376233e-18 -2.579285e+00)) ((-6.012417e-15 -4.906736e+02 5.860603e-15) (3.564591e-16 2.667307e+01 3.862323e-16))
0.0196365     	((9.873547e+01 2.748744e-14 1.168590e+03) (2.499261e+01 4.193674e-18 -2.635212e+00)) ((-5.951843e-15 -4.849695e+02 5.877265e-15) (3.744505e-16 2.671385e+01 3.928467e-16))
0.0197577     	((9.773118e+01 2.772897e-14 1.169762e+03) (2.499543e+01 3.451286e-18 -2.684081e+00)) ((-6.234703e-15 -4.887214e+02 5.977391e-15) (3.907638e-16 2.675007e+01 3.993308e-16))
0.0198788     	((8.712921e+01 4.287497e-14 7.174473e+02) (2.501966e+01 2.767947e-18 -2.719562e+00)) ((-2.599492e-14 -3.112338e+02 1.358506e-14) (4.058248e-16 2.680184e+01 4.053375e-16))
0.02          	((9.935068e+01 2.859452e-14 1.142109e+03) (2.500945e+01 1.893992e-18 -2.741744e+00)) ((-7.292676e-15 -4.785598e+02 6.366590e-15) (4.195220e-16 2.681069e+01 4.125167e-16))
0.0201235     	((9.804780e+01 2.811924e-14 1.170166e+03) (2.497140e+01 1.105836e-18 -2.744292e+00)) ((-6.759059e-15 -4.912997e+02 6.127476e-15) (4.313560e-16 2.678036e+01 4.210880e-16))
0.0202485     	((9.871270e+01 2.815479e-14 1.162714e+03) (2.489881e+01 6.125091e-19 -2.732326e+00)) ((-6.813224e-15 -4.850597e+02 6.167185e-15) (4.402208e-16 2.670650e+01 4.316107e-16))
0.0203767     	((9.815009e+01 2.804162e-14 1.167244e+03) (2.477675e+01 4.775919e-19 -2.710729e+00)) ((-6.693809e-15 -4.851730e+02 6.149667e-15) (4.453100e-16 2.657635e+01 4.462711e-16))
0.0205093     	((9.923344e+01 2.836579e-14 1.146552e+03) (2.462970e+01 3.525066e-19 -2.695958e+00)) ((-7.059004e-15 -4.757342e+02 6.291199e-15) (4.467552e-16 2.642510e+01 4.630176e-16))
0.0206475     	((9.627970e+01 2.770140e-14 1.204584e+03) (2.443702e+01 4.217306e-19 -2.700321e+00)) ((-6.220601e-15 -5.136635e+02 5.861099e-15) (4.455696e-16 2.623813e+01 4.839100e-16))
0.0207931     	((1.537431e+01 2.034532e-14 2.386154e+03) (2.367233e+01 -4.827228e-19 -2.627931e+00)) ((3.562001e-15 -1.401851e+03 -4.334175e-16) (4.533830e-16 2.539719e+01 5.607526e-16))
0.0209467     	((7.092491e+01 2.521548e-14 1.609484e+03) (2.340200e+01 -4.342540e-18 -2.625916e+00)) ((-2.908343e-15 -8.131181e+02 3.672597e-15) (4.567236e-16 2.511707e+01 5.824685e-16))
0.021111      	((8.279525e+01 2.624220e-14 1.437774e+03) (2.323321e+01 -7.977341e-18 -2.643686e+00)) ((-4.275822e-15 -6.835016e+02 4.567565e-15) (4.568966e-16 2.495635e+01 5.918771e-16))
0.0212843     	((8.736926e+01 2.649447e-14 1.371044e+03) (2.310909e+01 -1.144896e-17 -2.676636e+00)) ((-4.637757e-15 -6.304334e+02 4.882985e-15) (4.546058e-16 2.485388e+01 5.940843e-16))
0.0214677     	((8.899894e+01 2.674692e-14 1.340894e+03) (2.299862e+01 -1.486868e-17 -2.727414e+00)) ((-4.933674e-15 -6.107543e+02 5.048370e-15) (4.499363e-16 2.478133e+01 5.905675e-16))
0.0215921     	((8.672183e+01 2.673871e-14 1.344745e+03) (2.291953e+01 -1.724842e-17 -2.774722e+00)) ((-4.851412e-15 -6.206163e+02 5.020357e-15) (4.461355e-16 2.473804e+01 5.859023e-16))
0.0217157     	((8.881217e+01 2.681521e-14 1.315740e+03) (2.283750e+01 -1.956938e-17 -2.836143e+00)) ((-4.946572e-15 -5.964140e+02 5.153116e-15) (4.417492e-16 2.470483e+01 5.787049e-16))
0.0218392     	((8.943518e+01 2.683998e-14 1.306811e+03) (2.274647e+01 -2.195872e-17 -2.909395e+00)) ((-4.953195e-15 -5.890762e+02 5.190244e-15) (4.369324e-16 2.467371e+01 5.692043e-16))
0.0219627     	((8.996032e+01 2.688762e-14 1.296408e+03) (2.264573e+01 -2.444212e-17 -2.992825e+00)) ((-4.974265e-15 -5.810632e+02 5.243658e-15) (4.317916e-16 2.464298e+01 5.576334e-16))
0.0220863     	((8.985295e+01 2.705908e-14 1.293649e+03) (2.253612e+01 -2.573017e-17 -3.082097e+00)) ((-5.110225e-15 -5.820182e+02 5.297395e-15) (4.245740e-16 2.461099e+01 5.452481e-16))
0.0222098     	((8.669921e+01 3.058132e-14 1.214389e+03) (2.242122e+01 -2.643692e-17 -3.174274e+00)) ((-9.584259e-15 -5.559354e+02 7.061095e-15) (4.155641e-16 2.458018e+01 5.329417e-16))
0.0223334     	((7.689524e+01 4.315763e-14 9.061321e+02) (2.231857e+01 -2.688283e-17 -3.263067e+00)) ((-2.590573e-14 -4.328725e+02 1.360289e-14) (4.039070e-16 2.456522e+01 5.241768e-16))
0.0224578     	((8.995345e+01 2.696238e-14 1.299619e+03) (2.218133e+01 -2.750862e-17 -3.349116e+00)) ((-4.562810e-15 -5.822944e+02 5.234902e-15) (3.896036e-16 2.451753e+01 5.090456e-16))
0.022584      	((8.993396e+01 2.711501e-14 1.291180e+03) (2.202662e+01 -2.775244e-17 -3.432010e+00)) ((-4.527972e-15 -5.788340e+02 5.295388e-15) (3.722893e-16 2.445510e+01 4.915306e-16))
0.0227121     	((8.963476e+01 2.726930e-14 1.293799e+03) (2.186139e+01 -2.771621e-17 -3.522140e+00)) ((-4.573651e-15 -5.839572e+02 5.312875e-15) (3.539166e-16 2.439074e+01 4.726251e-16))
0.022844      	((8.920630e+01 2.716815e-14 1.301933e+03) (2.169594e+01 -2.767667e-17 -3.617836e+00)) ((-4.327866e-15 -5.880706e+02 5.252169e-15) (3.348916e-16 2.433438e+01 4.541098e-16))
0.0229813     	((8.925467e+01 2.703194e-14 1.306308e+03) (2.153280e+01 -2.814047e-17 -3.744457e+00)) ((-4.533758e-15 -5.893304e+02 5.215637e-15) (3.201251e-16 2.430340e+01 4.358615e-16))
0.0231267     	((8.952005e+01 2.706699e-14 1.301526e+03) (2.137700e+01 -2.919926e-17 -3.899407e+00)) ((-4.900076e-15 -5.854943e+02 5.273496e-15) (3.087893e-16 2.430231e+01 4.184194e-16))
0.0232801     	((8.784778e+01 2.889630e-14 1.264944e+03) (2.122592e+01 -3.148703e-17 -4.077033e+00)) ((-7.436644e-15 -5.760854e+02 6.173924e-15) (3.006443e-16 2.432495e+01 4.009927e-16))
0.0234321     	((8.854440e+01 2.721284e-14 1.310078e+03) (2.109067e+01 -3.346099e-17 -4.265605e+00)) ((-5.331764e-15 -5.943841e+02 5.317681e-15) (2.941317e-16 2.437067e+01 3.852737e-16))
0.0235787     	((8.829701e+01 2.707075e-14 1.311575e+03) (2.097454e+01 -3.539458e-17 -4.456981e+00)) ((-5.186248e-15 -5.947975e+02 5.260941e-15) (2.894492e-16 2.443567e+01 3.711830e-16))
0.0237215     	((8.758152e+01 2.713154e-14 1.319147e+03) (2.087411e+01 -3.729572e-17 -4.650924e+00)) ((-5.273250e-15 -6.030536e+02 5.243074e-15) (2.861512e-16 2.451685e+01 3.581985e-16))
0.0238619     	((8.784293e+01 2.697685e-14 1.313689e+03) (2.078777e+01 -3.917901e-17 -4.846055e+00)) ((-5.112729e-15 -5.959810e+02 5.227576e-15) (2.838989e-16 2.461179e+01 3.456132e-16))
0.023987      	((8.690616e+01 2.708473e-14 1.316505e+03) (2.071934e+01 -4.084832e-17 -5.022896e+00)) ((-5.246571e-15 -6.026041e+02 5.238375e-15) (2.824913e-16 2.470639e+01 3.342040e-16))
0.0241121     	((8.722213e+01 2.700709e-14 1.316068e+03) (2.066274e+01 -4.248451e-17 -5.198051e+00)) ((-5.183568e-15 -6.002055e+02 5.217214e-15) (2.813757e-16 2.481071e+01 3.227534e-16))
0.0242372     	((8.720595e+01 2.701738e-14 1.317465e+03) (2.061897e+01 -4.375946e-17 -5.368851e+00)) ((-5.185341e-15 -6.015200e+02 5.207310e-15) (2.799286e-16 2.492340e+01 3.113518e-16))
0.0243623     	((8.741154e+01 2.700802e-14 1.311531e+03) (2.058836e+01 -4.502448e-17 -5.531526e+00)) ((-5.131249e-15 -5.964486e+02 5.226561e-15) (2.781873e-16 2.504161e+01 2.994635e-16))
0.0244874     	((8.647129e+01 2.779024e-14 1.294642e+03) (2.057288e+01 -4.549943e-17 -5.678699e+00)) ((-5.590913e-15 -5.929366e+02 5.548455e-15) (2.751221e-16 2.516187e+01 2.876872e-16))
0.0246125     	((6.811775e+01 4.536032e-14 8.123405e+02) (2.060508e+01 -4.510837e-17 -5.801010e+00)) ((-6.194932e-15 -3.980959e+02 1.306872e-14) (2.701209e-16 2.531267e+01 2.824309e-16))
0.0247376     	((8.711554e+01 2.688887e-14 1.322218e+03) (2.061293e+01 -4.442760e-17 -5.900047e+00)) ((-4.667664e-15 -6.036691e+02 5.090302e-15) (2.643143e-16 2.542026e+01 2.681464e-16))
0.0248637     	((8.682512e+01 2.687806e-14 1.321235e+03) (2.061652e+01 -4.347202e-17 -5.972471e+00)) ((-4.451946e-15 -6.043045e+02 5.054317e-15) (2.572295e-16 2.550468e+01 2.511631e-16))
0.024992      	((8.676855e+01 2.700734e-14 1.312721e+03) (2.061586e+01 -4.233703e-17 -6.025500e+00)) ((-4.456302e-15 -6.000221e+02 5.110556e-15) (2.505817e-16 2.557013e+01 2.321580e-16))
0.0251236     	((8.626806e+01 2.677619e-14 1.327068e+03) (2.062421e+01 -4.105172e-17 -6.063350e+00)) ((-4.045060e-15 -6.086346e+02 4.955259e-15) (2.460531e-16 2.563262e+01 2.134008e-16))
0.0252601     	((8.635730e+01 2.682208e-14 1.326339e+03) (2.065356e+01 -3.990965e-17 -6.103267e+00)) ((-4.248239e-15 -6.078540e+02 4.998581e-15) (2.470614e-16 2.571418e+01 1.964861e-16))
0.0254032     	((8.617791e+01 2.723118e-14 1.320369e+03) (2.071075e+01 -3.857888e-17 -6.150358e+00)) ((-4.698311e-15 -6.054692e+02 5.211838e-15) (2.537662e-16 2.582386e+01 1.818936e-16))
0.0255537     	((8.444305e+01 2.874246e-14 1.290053e+03) (2.079230e+01 -3.631486e-17 -6.194709e+00)) ((-5.106683e-15 -5.970439e+02 5.844390e-15) (2.634043e-16 2.595047e+01 1.693256e-16))
0.0257125     	((8.603216e+01 2.723040e-14 1.331364e+03) (2.089824e+01 -3.351057e-17 -6.225603e+00)) ((-5.068860e-15 -6.119126e+02 5.221319e-15) (2.745968e-16 2.608426e+01 1.579450e-16))
0.0258695     	((8.581067e+01 2.713887e-14 1.333415e+03) (2.101989e+01 -3.079392e-17 -6.249331e+00)) ((-5.078004e-15 -6.128274e+02 5.189960e-15) (2.862499e-16 2.622373e+01 1.488819e-16))
0.0260265     	((8.527909e+01 2.723918e-14 1.336376e+03) (2.114928e+01 -2.851369e-17 -6.263211e+00)) ((-5.259294e-15 -6.175273e+02 5.202076e-15) (2.973353e-16 2.635908e+01 1.414633e-16))
0.0261535     	((8.486512e+01 2.704879e-14 1.324434e+03) (2.126390e+01 -2.645501e-17 -6.259111e+00)) ((-5.162858e-15 -6.085616e+02 5.187204e-15) (3.049123e-16 2.646112e+01 1.366432e-16))
0.0262805     	((8.473882e+01 2.704481e-14 1.325585e+03) (2.138809e+01 -2.397242e-17 -6.228420e+00)) ((-5.342545e-15 -6.092527e+02 5.164140e-15) (3.109050e-16 2.654536e+01 1.323966e-16))
0.0264064     	((8.400121e+01 2.717352e-14 1.327469e+03) (2.152223e+01 -2.136766e-17 -6.165713e+00)) ((-5.683771e-15 -6.134888e+02 5.166937e-15) (3.162365e-16 2.660736e+01 1.270212e-16))
0.0265323     	((8.459511e+01 2.691780e-14 1.318419e+03) (2.166940e+01 -1.865762e-17 -6.077224e+00)) ((-5.651429e-15 -6.025485e+02 5.102075e-15) (3.201499e-16 2.665701e+01 1.203226e-16))
0.0266418     	((8.298748e+01 2.697541e-14 1.319333e+03) (2.180052e+01 -1.620673e-17 -5.988274e+00)) ((-5.798260e-15 -6.074717e+02 5.084133e-15) (3.212101e-16 2.669189e+01 1.142449e-16))
0.026754      	((8.228962e+01 2.746078e-14 1.299748e+03) (2.192219e+01 -1.407561e-17 -5.886773e+00)) ((-5.639282e-15 -5.990815e+02 5.231773e-15) (3.182998e-16 2.670722e+01 1.093269e-16))
0.0268712     	((5.925600e+01 3.669287e-14 7.417412e+02) (2.205669e+01 -1.232627e-17 -5.791556e+00)) ((1.685938e-14 -3.658317e+02 6.914341e-15) (3.086263e-16 2.674943e+01 1.068511e-16))
0.0269928     	((8.497912e+01 2.705220e-14 1.330051e+03) (2.213049e+01 -1.060317e-17 -5.697564e+00)) ((-5.515345e-15 -6.120524e+02 5.120865e-15) (2.955287e-16 2.673621e+01 1.058984e-16))
0.0271203     	((8.451956e+01 2.718226e-14 1.332712e+03) (2.217010e+01 -8.780410e-18 -5.594148e+00)) ((-5.513609e-15 -6.160171e+02 5.151493e-15) (2.802174e-16 2.668709e+01 1.065663e-16))
0.0272491     	((8.449281e+01 2.713755e-14 1.330612e+03) (2.217717e+01 -6.950702e-18 -5.490849e+00)) ((-5.323335e-15 -6.132041e+02 5.158440e-15) (2.644394e-16 2.661001e+01 1.084105e-16))
0.0273806     	((8.418673e+01 2.719583e-14 1.332057e+03) (2.216823e+01 -5.906008e-18 -5.391332e+00)) ((-5.332107e-15 -6.154717e+02 5.169732e-15) (2.490030e-16 2.652312e+01 1.105022e-16))
0.0275177     	((8.413507e+01 2.708334e-14 1.341508e+03) (2.215478e+01 -4.961852e-18 -5.309536e+00)) ((-5.213312e-15 -6.205451e+02 5.108427e-15) (2.334199e-16 2.644637e+01 1.129512e-16))
0.0276612     	((8.395079e+01 2.723970e-14 1.341896e+03) (2.214225e+01 -4.226658e-18 -5.257427e+00)) ((-5.081019e-15 -6.221274e+02 5.152688e-15) (2.182375e-16 2.639267e+01 1.153790e-16))