# Forces      
# CofR        : (0.000000e+00 0.000000e+00 -1.000000e+00)
# Time        forces(pressure viscous)	moments(pressure viscous)
0             	((0.000000e+00 5.400319e-14 -2.273737e-13) (1.063098e+01 -7.167381e-18 1.955455e+00)) ((-4.848146e-14 3.410605e-13 3.015271e-14) (-1.146648e-17 9.667785e+00 8.190375e-17))
1.19976e-05   	((1.760935e+05 -2.518542e-12 1.694884e+06) (1.076007e+01 -7.455109e-18 1.715433e+00)) ((-2.228053e-11 -4.601131e+05 -1.638580e-12) (-6.789115e-18 9.874613e+00 8.112309e-17))
2.63878e-05   	((2.025671e+04 -7.467738e-13 3.022099e+05) (1.078990e+01 -7.506343e-18 1.631406e+00)) ((-2.837360e-12 -1.081861e+05 -4.819076e-13) (-5.052083e-18 9.933876e+00 8.116360e-17))
4.36511e-05   	((1.177840e+04 -3.765577e-13 1.670362e+05) (1.082672e+01 -7.403142e-18 1.594042e+00)) ((-1.725987e-12 -5.773708e+04 -2.443748e-13) (-4.228955e-18 9.983075e+00 8.134524e-17))
6.43527e-05   	((8.186417e+03 -2.445744e-13 1.145654e+05) (1.087569e+01 -7.328371e-18 1.569410e+00)) ((-1.221734e-12 -3.949907e+04 -1.601508e-13) (-3.659158e-18 1.004043e+01 8.151795e-17))
8.91792e-05   	((5.888782e+03 -1.577322e-13 7.886266e+04) (1.093793e+01 -7.240593e-18 1.551662e+00)) ((-8.657249e-13 -2.699880e+04 -1.035207e-13) (-3.235393e-18 1.010915e+01 8.157350e-17))
0.000118941   	((5.033228e+03 -1.416771e-13 5.821946e+04) (1.101578e+01 -7.170865e-18 1.540144e+00)) ((-6.397271e-13 -1.963303e+04 -7.650193e-14) (-2.910106e-18 1.019215e+01 8.170719e-17))
0.000154634   	((3.275216e+03 -7.760029e-14 4.225490e+04) (1.110915e+01 -7.001896e-18 1.528432e+00)) ((-4.804733e-13 -1.439599e+04 -4.845110e-14) (-2.644459e-18 1.029039e+01 8.181317e-17))
0.000197405   	((2.892492e+03 -5.274046e-14 3.343600e+04) (1.122921e+01 -6.777361e-18 1.516444e+00)) ((-3.929162e-13 -1.103185e+04 -3.285704e-14) (-2.393633e-18 1.041505e+01 8.199299e-17))
0.000248707   	((2.386600e+03 -3.409602e-14 2.570984e+04) (1.138540e+01 -6.603686e-18 1.516469e+00)) ((-3.132870e-13 -8.307252e+03 -2.077951e-14) (-2.286900e-18 1.056502e+01 8.234741e-17))
0.000310237   	((2.029239e+03 -4.350942e-14 1.996755e+04) (1.158654e+01 -6.423513e-18 1.527666e+00)) ((-2.332237e-13 -6.560925e+03 -1.767061e-14) (-2.178086e-18 1.075331e+01 8.315413e-17))
0.000383982   	((7.468521e+02 -8.329834e-14 2.739756e+04) (1.182252e+01 -6.106959e-18 1.497880e+00)) ((-1.443608e-13 -1.400183e+04 -5.897379e-14) (-1.221095e-18 1.101457e+01 8.523325e-17))
0.000472342   	((1.411331e+03 -1.153855e-14 1.442588e+04) (1.216978e+01 -5.803562e-18 1.495355e+00)) ((-1.784984e-13 -4.740388e+03 -6.474225e-15) (-7.194398e-19 1.136215e+01 8.672496e-17))
0.000577897   	((1.440349e+03 -1.541454e-14 1.223256e+04) (1.264484e+01 -5.248968e-18 1.506251e+00)) ((-1.531946e-13 -3.850661e+03 -4.013595e-15) (-4.072478e-19 1.183240e+01 8.903282e-17))
0.000704014   	((1.038371e+03 -3.439694e-15 1.012204e+04) (1.328728e+01 -4.913168e-18 1.527333e+00)) ((-1.307429e-13 -3.290832e+03 -6.204677e-16) (2.829233e-19 1.246396e+01 9.186953e-17))
0.000854764   	((9.640848e+02 1.248914e-15 9.023766e+03) (1.411022e+01 -4.533374e-18 1.569358e+00)) ((-1.200132e-13 -2.849322e+03 1.734050e-15) (1.092794e-18 1.326986e+01 9.484084e-17))
0.00103538    	((9.637813e+02 -5.040198e-16 7.631672e+03) (1.505125e+01 -3.881217e-18 1.635895e+00)) ((-1.027071e-13 -2.372407e+03 2.942879e-15) (1.550375e-18 1.419179e+01 9.774674e-17))
0.00125089    	((7.408496e+02 6.387294e-15 6.633678e+03) (1.607890e+01 -3.072307e-18 1.700898e+00)) ((-9.351017e-14 -2.072545e+03 4.993700e-15) (2.133690e-18 1.520183e+01 1.008059e-16))
0.00150772    	((6.724029e+02 7.907786e-15 5.805936e+03) (1.718297e+01 -2.144927e-18 1.760471e+00)) ((-8.410405e-14 -1.806548e+03 6.001815e-15) (2.656889e-18 1.629054e+01 1.035094e-16))
0.00181593    	((6.454236e+02 7.444547e-15 5.088506e+03) (1.834394e+01 -1.353756e-18 1.825556e+00)) ((-7.584512e-14 -1.591329e+03 6.366960e-15) (3.452957e-18 1.743522e+01 1.055050e-16))
0.00217961    	((6.891068e+02 7.984757e-15 4.928239e+03) (1.953817e+01 -1.181653e-18 1.877187e+00)) ((-7.322163e-14 -1.484631e+03 6.825827e-15) (4.672553e-18 1.861453e+01 1.076345e-16))
0.0026039     	((2.296330e+03 -2.064529e-14 6.417063e+03) (2.095274e+01 -2.243198e-18 1.898523e+00)) ((-1.031731e-13 -1.262052e+03 2.192532e-15) (7.818394e-18 2.001878e+01 1.101331e-16))
0.00297403    	((5.729854e+02 5.670770e-15 4.847330e+03) (2.190547e+01 -2.823602e-18 1.901760e+00)) ((-6.409589e-14 -1.678470e+03 4.849125e-15) (9.303678e-18 2.097031e+01 1.124931e-16))
0.00333629    	((4.063000e+02 4.148105e-16 4.887052e+03) (2.268141e+01 -3.423503e-18 1.907345e+00)) ((-5.133167e-14 -2.097886e+03 8.577143e-16) (9.919257e-18 2.174821e+01 1.137318e-16))
0.00367636    	((9.079012e+01 -3.244134e-14 9.628351e+03) (2.327008e+01 -2.309457e-18 1.957481e+00)) ((-1.638989e-14 -5.311373e+03 -2.213101e-14) (6.961535e-18 2.233141e+01 1.079897e-16))
0.0039275     	((3.788450e+02 1.237842e-14 3.574257e+03) (2.366251e+01 -2.453638e-18 1.955926e+00)) ((-5.412283e-14 -1.201036e+03 8.173500e-15) (5.668082e-18 2.272998e+01 1.046223e-16))
0.00416739    	((4.429720e+02 8.089736e-15 2.830072e+03) (2.400943e+01 -2.655937e-18 1.918742e+00)) ((-5.084924e-14 -9.864876e+02 7.415049e-15) (3.238587e-18 2.309195e+01 1.009246e-16))
0.00445525    	((3.326845e+02 4.572883e-15 2.990839e+03) (2.426371e+01 -1.726183e-18 1.948596e+00)) ((-5.512790e-14 -1.248880e+03 4.702919e-15) (7.311092e-18 2.334139e+01 1.041576e-16))
0.00480069    	((1.590516e+02 1.046890e-14 3.752279e+03) (2.457459e+01 -1.519767e-18 1.935219e+00)) ((-3.955440e-14 -1.628897e+03 5.103503e-15) (8.670693e-18 2.366037e+01 1.050583e-16))
0.00521148    	((1.290443e+02 1.070782e-14 3.590221e+03) (2.487866e+01 -1.091645e-18 1.912404e+00)) ((-3.807069e-14 -1.590611e+03 5.093823e-15) (9.520183e-18 2.398409e+01 1.061654e-16))
0.00568853    	((1.782870e+02 1.733656e-14 2.375447e+03) (2.510857e+01 -4.828123e-19 1.909235e+00)) ((-4.625674e-14 -8.532193e+02 9.732128e-15) (1.251374e-17 2.423011e+01 1.154530e-16))
0.00621859    	((1.885672e+02 1.589760e-14 2.101970e+03) (2.526970e+01 -1.791139e-19 1.881710e+00)) ((-4.252483e-14 -7.527859e+02 9.661264e-15) (1.390829e-17 2.441502e+01 1.201708e-16))
0.00679281    	((1.946040e+02 1.758582e-14 1.821877e+03) (2.536425e+01 -8.776939e-20 1.854786e+00)) ((-4.385212e-14 -6.647278e+02 1.021116e-14) (1.335089e-17 2.453555e+01 1.272239e-16))
0.00724823    	((1.564207e+02 1.847260e-14 2.185046e+03) (2.538333e+01 1.302400e-19 1.806654e+00)) ((-3.671779e-14 -7.651868e+02 1.046811e-14) (1.268802e-17 2.458105e+01 1.315532e-16))
0.0077583     	((1.469808e+02 1.812268e-14 2.168091e+03) (2.525018e+01 3.219397e-19 1.754404e+00)) ((-3.506428e-14 -7.898666e+02 1.020646e-14) (1.306049e-17 2.446881e+01 1.478182e-16))
0.00831474    	((1.408333e+02 1.789506e-14 2.094285e+03) (2.549400e+01 6.829868e-19 1.687552e+00)) ((-3.173069e-14 -7.868106e+02 1.007182e-14) (1.042670e-17 2.475218e+01 1.158138e-16))
0.00889901    	((1.435727e+02 1.833617e-14 1.953273e+03) (2.539158e+01 3.123911e-19 1.605643e+00)) ((-3.226464e-14 -7.276927e+02 1.034154e-14) (1.109759e-17 2.468682e+01 1.186894e-16))
0.00948327    	((1.500221e+02 1.806491e-14 1.814464e+03) (2.526793e+01 3.639429e-19 1.523477e+00)) ((-3.583233e-14 -6.724983e+02 1.034230e-14) (1.267734e-17 2.459557e+01 1.258917e-16))
0.0100368     	((1.341817e+02 1.865254e-14 1.955482e+03) (2.509954e+01 -3.239829e-20 1.453300e+00)) ((-3.503594e-14 -7.178981e+02 1.051321e-14) (1.606104e-17 2.445150e+01 1.394314e-16))
0.0105349     	((1.365579e+02 1.883161e-14 1.876322e+03) (2.492621e+01 -2.956301e-19 1.387703e+00)) ((-3.870434e-14 -6.798217e+02 1.068863e-14) (1.860445e-17 2.429823e+01 1.529774e-16))
0.0110331     	((1.263276e+02 1.811976e-14 1.999945e+03) (2.496557e+01 -2.200950e-19 1.296582e+00)) ((-3.199936e-14 -7.676817e+02 1.013765e-14) (1.752871e-17 2.438126e+01 1.407667e-16))
0.0115606     	((1.289489e+02 1.836423e-14 1.890675e+03) (2.483454e+01 -3.324981e-19 1.227230e+00)) ((-3.138902e-14 -7.158329e+02 1.037001e-14) (1.831596e-17 2.427857e+01 1.443642e-16))
0.0120294     	((1.344575e+02 1.991207e-14 1.714700e+03) (2.469874e+01 -2.199208e-19 1.176077e+00)) ((-3.704179e-14 -6.664568e+02 1.087063e-14) (1.911860e-17 2.416339e+01 1.531404e-16))
0.0124983     	((1.382461e+02 1.886540e-14 1.674454e+03) (2.452066e+01 -1.060333e-19 1.137623e+00)) ((-3.495492e-14 -6.406775e+02 1.061392e-14) (1.958263e-17 2.399823e+01 1.598371e-16))
0.0129671     	((1.279073e+02 1.874095e-14 1.856501e+03) (2.431397e+01 4.140525e-20 1.098472e+00)) ((-3.088291e-14 -6.897722e+02 1.057154e-14) (1.996102e-17 2.380174e+01 1.670686e-16))
0.013436      	((1.186525e+02 1.799346e-14 1.957882e+03) (2.427072e+01 3.691420e-19 1.046165e+00)) ((-2.994833e-14 -7.711668e+02 1.003155e-14) (1.828318e-17 2.378209e+01 1.572449e-16))
0.0139049     	((1.237472e+02 1.997520e-14 1.813864e+03) (2.411137e+01 8.143035e-19 1.008658e+00)) ((-2.945790e-14 -6.880557e+02 1.090360e-14) (1.776745e-17 2.363385e+01 1.611413e-16))
0.0143402     	((1.244066e+02 1.870433e-14 1.829716e+03) (2.395810e+01 1.106085e-18 9.689665e-01)) ((-3.045234e-14 -6.928665e+02 1.051761e-14) (1.780061e-17 2.349147e+01 1.648400e-16))
0.0147175     	((1.251843e+02 1.863502e-14 1.820832e+03) (2.382204e+01 1.263397e-18 9.353385e-01)) ((-3.071287e-14 -6.891742e+02 1.050339e-14) (1.804424e-17 2.336507e+01 1.690191e-16))
0.0150697     	((1.284550e+02 2.002663e-14 1.696174e+03) (2.366761e+01 1.451773e-18 9.112333e-01)) ((-3.053682e-14 -6.416505e+02 1.102281e-14) (1.660240e-17 2.321623e+01 1.699671e-16))
0.0154219     	((1.239246e+02 1.904592e-14 1.765415e+03) (2.353631e+01 1.430792e-18 8.843528e-01)) ((-3.263035e-14 -6.815454e+02 1.060410e-14) (1.574521e-17 2.309387e+01 1.601657e-16))
0.0158034     	((1.280893e+02 1.959942e-14 1.661494e+03) (2.333508e+01 1.310358e-18 8.689096e-01)) ((-3.403453e-14 -6.271682e+02 1.092486e-14) (1.668801e-17 2.289351e+01 1.594510e-16))
0.0161849     	((1.231611e+02 1.997735e-14 1.641895e+03) (2.322524e+01 1.450619e-18 8.422437e-01)) ((-2.802560e-14 -6.434224e+02 1.078646e-14) (1.633371e-17 2.279464e+01 1.546190e-16))
0.0166088     	((1.249391e+02 1.904885e-14 1.735475e+03) (2.300881e+01 1.310010e-18 8.197126e-01)) ((-3.050065e-14 -6.430594e+02 1.078055e-14) (1.748890e-17 2.258242e+01 1.578526e-16))
0.0170327     	((1.189700e+02 1.849454e-14 1.814589e+03) (2.294665e+01 1.340161e-18 7.852780e-01)) ((-2.997353e-14 -7.038116e+02 1.037486e-14) (1.778884e-17 2.253669e+01 1.510267e-16))
0.0174566     	((1.221849e+02 1.903912e-14 1.754932e+03) (2.277083e+01 1.100537e-18 7.593157e-01)) ((-3.047700e-14 -6.656165e+02 1.066382e-14) (1.865764e-17 2.236964e+01 1.538221e-16))
0.0178805     	((1.226355e+02 1.910760e-14 1.732957e+03) (2.252094e+01 9.425657e-19 7.438267e-01)) ((-3.034521e-14 -6.492888e+02 1.075013e-14) (1.948716e-17 2.211914e+01 1.610619e-16))
0.0183044     	((1.208163e+02 1.895719e-14 1.747903e+03) (2.227877e+01 6.620302e-19 7.174980e-01)) ((-3.017803e-14 -6.640096e+02 1.063799e-14) (1.955858e-17 2.188111e+01 1.619951e-16))
0.0187283     	((1.198568e+02 1.829786e-14 1.620468e+03) (2.197333e+01 3.260391e-19 7.081817e-01)) ((-2.814517e-14 -6.292431e+02 1.023729e-14) (1.778137e-17 2.157765e+01 1.552419e-16))
0.0191522     	((1.195515e+02 1.891032e-14 1.758627e+03) (2.166658e+01 -6.323762e-19 6.714300e-01)) ((-3.006189e-14 -6.723783e+02 1.058874e-14) (1.623738e-17 2.129355e+01 1.393416e-16))
0.0195761     	((1.200621e+02 1.904532e-14 1.736078e+03) (2.143847e+01 -8.707709e-19 6.270058e-01)) ((-3.004475e-14 -6.584897e+02 1.068068e-14) (1.517947e-17 2.109642e+01 1.235007e-16))
0.02          	((1.202838e+02 1.914713e-14 1.725325e+03) (2.126723e+01 -9.243800e-19 5.876638e-01)) ((-2.998189e-14 -6.555340e+02 1.069713e-14) (1.514281e-17 2.095216e+01 1.125974e-16))
0.0204651     	((1.201838e+02 1.919327e-14 1.712089e+03) (2.111023e+01 -9.825888e-19 5.498881e-01)) ((-2.992787e-14 -6.453245e+02 1.076179e-14) (1.596081e-17 2.081948e+01 1.069101e-16))
0.0209416     	((1.187108e+02 1.806036e-14 1.591898e+03) (2.092274e+01 -1.087806e-18 5.185298e-01)) ((-2.443940e-14 -6.093844e+02 1.006828e-14) (1.693589e-17 2.065193e+01 1.021871e-16))
0.021418      	((1.199768e+02 1.918062e-14 1.703459e+03) (2.070654e+01 -1.214145e-18 4.737307e-01)) ((-2.988752e-14 -6.433983e+02 1.074337e-14) (1.812134e-17 2.046795e+01 1.037976e-16))
0.0218945     	((1.202200e+02 1.918883e-14 1.680507e+03) (2.051195e+01 -1.611178e-18 4.340513e-01)) ((-2.945189e-14 -6.305376e+02 1.076548e-14) (1.831154e-17 2.030218e+01 1.059695e-16))
0.022371      	((1.200012e+02 1.922944e-14 1.689224e+03) (2.033409e+01 -2.028889e-18 3.879947e-01)) ((-2.976104e-14 -6.344147e+02 1.078296e-14) (1.894689e-17 2.016015e+01 1.063406e-16))
0.0228474     	((1.194812e+02 1.918228e-14 1.690340e+03) (2.014606e+01 -2.327701e-18 3.216080e-01)) ((-2.965846e-14 -6.371083e+02 1.074553e-14) (2.101082e-17 2.002912e+01 1.042913e-16))
0.0233239     	((1.196203e+02 1.922429e-14 1.665233e+03) (1.994431e+01 -3.091394e-18 2.434739e-01)) ((-2.981578e-14 -6.251295e+02 1.078918e-14) (2.143210e-17 1.989302e+01 9.439429e-17))
0.0238003     	((1.177312e+02 1.936895e-14 1.590468e+03) (1.968166e+01 -4.005155e-18 1.759384e-01)) ((-3.560739e-14 -6.015661e+02 1.105098e-14) (2.750527e-17 1.969448e+01 7.705980e-17))
0.0242768     	((1.188121e+02 1.917201e-14 1.685598e+03) (1.947905e+01 -4.263541e-18 7.934140e-02)) ((-2.949407e-14 -6.352426e+02 1.073536e-14) (3.146873e-17 1.957330e+01 6.884016e-17))
0.0247533     	((1.187394e+02 1.919622e-14 1.675921e+03) (1.932350e+01 -4.223256e-18 -3.506907e-02)) ((-2.936093e-14 -6.296195e+02 1.075178e-14) (3.475171e-17 1.951060e+01 6.623757e-17))
0.0252297     	((1.182031e+02 1.912831e-14 1.683412e+03) (1.918084e+01 -5.396778e-18 -1.603344e-01)) ((-2.929150e-14 -6.355243e+02 1.068512e-14) (3.902407e-17 1.946777e+01 6.329661e-17))
0.0257062     	((1.180038e+02 1.922759e-14 1.663088e+03) (1.905056e+01 -7.391513e-18 -2.974766e-01)) ((-2.987386e-14 -6.250955e+02 1.075979e-14) (4.445252e-17 1.944479e+01 5.969550e-17))
0.0261826     	((1.164164e+02 1.982013e-14 1.613457e+03) (1.894903e+01 -8.575997e-18 -4.523928e-01)) ((-3.178578e-14 -6.088212e+02 1.103519e-14) (4.898617e-17 1.946032e+01 5.740906e-17))
0.0266591     	((1.164450e+02 1.964640e-14 1.624409e+03) (1.888131e+01 -9.543488e-18 -6.178153e-01)) ((-3.115757e-14 -6.126981e+02 1.093727e-14) (5.354617e-17 1.951539e+01 5.485575e-17))
0.0271356     	((1.171266e+02 1.909220e-14 1.670117e+03) (1.883650e+01 -1.022910e-17 -7.856314e-01)) ((-2.898334e-14 -6.297187e+02 1.062944e-14) (5.793093e-17 1.959468e+01 5.102984e-17))
0.027612      	((1.166358e+02 1.908555e-14 1.675015e+03) (1.881497e+01 -1.034951e-17 -9.588949e-01)) ((-2.918043e-14 -6.335285e+02 1.062169e-14) (6.301159e-17 1.969923e+01 4.789392e-17))
0.0280708     	((1.164780e+02 1.910466e-14 1.673545e+03) (1.881567e+01 -1.033905e-17 -1.133899e+00)) ((-2.913525e-14 -6.318702e+02 1.063807e-14) (6.783908e-17 1.982379e+01 4.481813e-17))
0.028548      	((1.162540e+02 1.921567e-14 1.659682e+03) (1.885212e+01 -1.010394e-17 -1.330480e+00)) ((-2.935117e-14 -6.257326e+02 1.069029e-14) (7.178612e-17 1.999332e+01 4.081289e-17))
0.0290252     	((1.127328e+02 1.969537e-14 1.573049e+03) (1.892810e+01 -1.004018e-17 -1.538893e+00)) ((-2.902302e-14 -5.987733e+02 1.077222e-14) (7.512135e-17 2.020329e+01 3.610627e-17))
0.0295023     	((1.163227e+02 1.911908e-14 1.665008e+03) (1.904195e+01 -1.075530e-17 -1.750574e+00)) ((-2.914997e-14 -6.276173e+02 1.063978e-14) (7.858825e-17 2.044582e+01 3.013775e-17))
0.0299588     	((1.157818e+02 1.911417e-14 1.670002e+03) (1.918513e+01 -1.305142e-17 -1.958184e+00)) ((-2.926585e-14 -6.320285e+02 1.061947e-14) (8.340617e-17 2.070790e+01 2.375179e-17))
0.0304152     	((1.155798e+02 1.915458e-14 1.670582e+03) (1.935873e+01 -1.481092e-17 -2.170066e+00)) ((-2.924326e-14 -6.320323e+02 1.063723e-14) (8.772756e-17 2.099572e+01 1.832060e-17))
0.0308716     	((1.154110e+02 1.925972e-14 1.665380e+03) (1.954088e+01 -1.599407e-17 -2.377208e+00)) ((-2.924909e-14 -6.294349e+02 1.068444e-14) (9.190006e-17 2.128231e+01 1.369693e-17))
0.031328      	((1.145308e+02 1.929927e-14 1.657112e+03) (1.973057e+01 -1.705351e-17 -2.591941e+00)) ((-2.923140e-14 -6.287597e+02 1.067432e-14) (9.647297e-17 2.157305e+01 9.224555e-18))
0.0317222     	((1.102029e+02 2.063706e-14 1.558743e+03) (1.990837e+01 -1.813240e-17 -2.779264e+00)) ((-3.248357e-14 -5.940422e+02 1.133215e-14) (1.015041e-16 2.183299e+01 5.521893e-18))
0.0321164     	((1.146184e+02 1.910984e-14 1.675411e+03) (2.009663e+01 -1.939921e-17 -2.978834e+00)) ((-2.915979e-14 -6.369640e+02 1.058907e-14) (1.071896e-16 2.210522e+01 2.518838e-18))
0.0325313     	((1.148586e+02 1.914798e-14 1.665618e+03) (2.030464e+01 -1.994925e-17 -3.195463e+00)) ((-2.904528e-14 -6.306250e+02 1.062629e-14) (1.130596e-16 2.240090e+01 6.407526e-19))
0.0329462     	((1.141295e+02 1.912794e-14 1.674650e+03) (2.052217e+01 -1.921147e-17 -3.417200e+00)) ((-2.903101e-14 -6.373657e+02 1.059548e-14) (1.181171e-16 2.270444e+01 6.609184e-19))
0.0333612     	((1.136862e+02 1.926468e-14 1.666255e+03) (2.073786e+01 -1.786156e-17 -3.638996e+00)) ((-2.922426e-14 -6.339672e+02 1.066718e-14) (1.233310e-16 2.300223e+01 2.011175e-18))
0.03373       	((1.137019e+02 1.928328e-14 1.667934e+03) (2.092329e+01 -1.848646e-17 -3.833145e+00)) ((-2.918631e-14 -6.344827e+02 1.067293e-14) (1.308167e-16 2.325420e+01 3.077563e-18))
0.0341219     	((1.132485e+02 1.944584e-14 1.657599e+03) (2.111730e+01 -1.934869e-17 -4.047652e+00)) ((-2.944708e-14 -6.311346e+02 1.074784e-14) (1.401675e-16 2.352132e+01 5.838635e-18))
0.0345417     	((1.094193e+02 2.282347e-14 1.571372e+03) (2.130778e+01 -2.051713e-17 -4.259871e+00)) ((-3.260380e-14 -5.974358e+02 1.232627e-14) (1.504651e-16 2.377935e+01 9.640935e-18))
0.0349316     	((1.132221e+02 1.944823e-14 1.664433e+03) (2.148638e+01 -2.194047e-17 -4.474959e+00)) ((-2.919769e-14 -6.337591e+02 1.074522e-14) (1.611505e-16 2.402637e+01 1.340873e-17))
0.0352936     	((1.128496e+02 1.924308e-14 1.676173e+03) (2.165897e+01 -2.240556e-17 -4.680927e+00)) ((-2.895551e-14 -6.405393e+02 1.063514e-14) (1.707822e-16 2.426342e+01 1.817841e-17))
0.0356858     	((1.128269e+02 1.926695e-14 1.673656e+03) (2.184797e+01 -2.439990e-17 -4.904499e+00)) ((-2.890288e-14 -6.390801e+02 1.065484e-14) (1.831105e-16 2.452172e+01 2.356854e-17))
0.036078      	((1.126151e+02 1.926795e-14 1.675969e+03) (2.203023e+01 -2.673016e-17 -5.125795e+00)) ((-2.889270e-14 -6.407783e+02 1.065230e-14) (1.959114e-16 2.477029e+01 2.941558e-17))
0.0364702     	((1.128085e+02 1.929844e-14 1.671961e+03) (2.219750e+01 -2.949139e-17 -5.340528e+00)) ((-2.889997e-14 -6.377769e+02 1.068012e-14) (2.091869e-16 2.499865e+01 3.528183e-17))
0.0368232     	((1.109649e+02 1.991908e-14 1.663752e+03) (2.233962e+01 -3.125744e-17 -5.533642e+00)) ((-2.970738e-14 -6.389913e+02 1.095249e-14) (2.202126e-16 2.519257e+01 4.057730e-17))
0.0371409     	((1.056636e+02 2.487844e-14 1.543833e+03) (2.245393e+01 -3.329375e-17 -5.687718e+00)) ((-3.537448e-14 -5.890323e+02 1.340799e-14) (2.304697e-16 2.534126e+01 4.439033e-17))
0.0374983     	((1.124265e+02 1.924356e-14 1.675585e+03) (2.257220e+01 -3.581126e-17 -5.881258e+00)) ((-2.885216e-14 -6.406545e+02 1.064292e-14) (2.402242e-16 2.551126e+01 4.816210e-17))
0.0378557     	((1.117369e+02 1.920048e-14 1.682610e+03) (2.268367e+01 -3.703075e-17 -6.073986e+00)) ((-2.885759e-14 -6.462852e+02 1.060488e-14) (2.466779e-16 2.567496e+01 5.136122e-17))
0.0382131     	((1.118053e+02 1.917735e-14 1.681743e+03) (2.280100e+01 -3.992607e-17 -6.260876e+00)) ((-2.886040e-14 -6.452783e+02 1.060032e-14) (2.519728e-16 2.584314e+01 5.070926e-17))
0.0385704     	((1.106848e+02 1.973268e-14 1.673239e+03) (2.291712e+01 -4.455617e-17 -6.433856e+00)) ((-2.958522e-14 -6.435463e+02 1.086706e-14) (2.566197e-16 2.600513e+01 4.646864e-17))
0.0389278     	((1.113762e+02 1.925137e-14 1.681558e+03) (2.302205e+01 -4.948944e-17 -6.587448e+00)) ((-2.906291e-14 -6.460078e+02 1.063831e-14) (2.590996e-16 2.614821e+01 3.870752e-17))
0.0392852     	((1.102590e+02 1.965862e-14 1.676881e+03) (2.311312e+01 -5.442595e-17 -6.720197e+00)) ((-2.963582e-14 -6.465994e+02 1.082658e-14) (2.583134e-16 2.626911e+01 2.688017e-17))
0.0396426     	((1.036661e+02 2.480916e-14 1.551620e+03) (2.318188e+01 -5.823615e-17 -6.817447e+00)) ((-3.662225e-14 -5.943950e+02 1.349532e-14) (2.528747e-16 2.635182e+01 1.139980e-17))
0.04          	((1.100204e+02 1.994101e-14 1.666374e+03) (2.324368e+01 -6.123481e-17 -6.909798e+00)) ((-3.010349e-14 -6.411280e+02 1.097711e-14) (2.440829e-16 2.642895e+01 -7.185540e-18))
0.0403774     	((1.101891e+02 1.949466e-14 1.680197e+03) (2.328413e+01 -6.141484e-17 -7.003210e+00)) ((-2.955405e-14 -6.481903e+02 1.073345e-14) (2.301944e-16 2.648745e+01 -2.405496e-17))
0.0407547     	((1.106751e+02 1.939095e-14 1.676362e+03) (2.330374e+01 -6.063839e-17 -7.081111e+00)) ((-2.940296e-14 -6.443681e+02 1.068815e-14) (2.141500e-16 2.651791e+01 -3.844339e-17))
0.0411248     	((1.100930e+02 1.936712e-14 1.685828e+03) (2.329428e+01 -5.919807e-17 -7.142239e+00)) ((-2.940806e-14 -6.507711e+02 1.066180e-14) (1.966263e-16 2.651198e+01 -4.906649e-17))
0.0414949     	((1.102813e+02 1.931014e-14 1.686928e+03) (2.325467e+01 -5.819420e-17 -7.187460e+00)) ((-2.926368e-14 -6.506780e+02 1.063442e-14) (1.790491e-16 2.646822e+01 -5.807981e-17))
0.041865      	((1.099193e+02 1.953470e-14 1.681906e+03) (2.319048e+01 -5.803507e-17 -7.220165e+00)) ((-2.937810e-14 -6.487370e+02 1.073724e-14) (1.609581e-16 2.639460e+01 -6.794104e-17))
0.0422351     	((1.013144e+02 2.647212e-14 1.546662e+03) (2.309027e+01 -5.847301e-17 -7.220677e+00)) ((-3.848778e-14 -5.932679e+02 1.440431e-14) (1.413784e-16 2.626785e+01 -7.703019e-17))
0.0426052     	((1.100717e+02 1.940585e-14 1.683930e+03) (2.295841e+01 -5.771050e-17 -7.221463e+00)) ((-2.916005e-14 -6.497030e+02 1.066370e-14) (1.196194e-16 2.610945e+01 -8.389445e-17))
0.0429676     	((1.096295e+02 1.947619e-14 1.684343e+03) (2.281894e+01 -5.685123e-17 -7.217414e+00)) ((-2.938560e-14 -6.510047e+02 1.069178e-14) (1.005452e-16 2.593880e+01 -8.537946e-17))
0.04333       	((1.095886e+02 1.943196e-14 1.685853e+03) (2.267668e+01 -5.539917e-17 -7.206491e+00)) ((-2.936354e-14 -6.519607e+02 1.067105e-14) (8.373502e-17 2.576018e+01 -8.306890e-17))
0.0436924     	((1.085815e+02 2.017746e-14 1.672599e+03) (2.253833e+01 -5.282115e-17 -7.188746e+00)) ((-3.036726e-14 -6.469803e+02 1.107103e-14) (6.843650e-17 2.558232e+01 -7.719482e-17))
0.0440548     	((1.093337e+02 1.946493e-14 1.688309e+03) (2.239865e+01 -5.036740e-17 -7.161827e+00)) ((-2.928534e-14 -6.538923e+02 1.069266e-14) (5.535727e-17 2.539810e+01 -6.988473e-17))
0.0444172     	((1.089294e+02 1.957533e-14 1.687007e+03) (2.225346e+01 -4.787907e-17 -7.124139e+00)) ((-2.909237e-14 -6.538630e+02 1.073642e-14) (4.367715e-17 2.520318e+01 -6.119380e-17))
0.0447796     	((9.939256e+01 2.594480e-14 1.541851e+03) (2.208591e+01 -4.609042e-17 -7.056651e+00)) ((-2.847322e-14 -5.913314e+02 1.350401e-14) (3.183771e-17 2.496978e+01 -5.106666e-17))
0.045142      	((1.086558e+02 1.951396e-14 1.689810e+03) (2.189507e+01 -4.469155e-17 -6.988041e+00)) ((-2.860090e-14 -6.560603e+02 1.067476e-14) (2.312926e-17 2.471187e+01 -4.251306e-17))
0.0455044     	((1.084863e+02 1.956388e-14 1.692967e+03) (2.170661e+01 -4.350318e-17 -6.926032e+00)) ((-2.878845e-14 -6.584307e+02 1.070865e-14) (1.706510e-17 2.446047e+01 -3.001625e-17))
0.0458667     	((1.076482e+02 1.993611e-14 1.688911e+03) (2.152044e+01 -4.241523e-17 -6.867196e+00)) ((-2.889410e-14 -6.580119e+02 1.087203e-14) (1.219615e-17 2.421312e+01 -1.372290e-17))
0.0462291     	((1.070873e+02 2.014731e-14 1.687132e+03) (2.133033e+01 -4.058903e-17 -6.803053e+00)) ((-2.894862e-14 -6.581707e+02 1.096175e-14) (6.837800e-18 2.395755e+01 6.746510e-18))
0.0465915     	((1.074482e+02 1.966909e-14 1.699965e+03) (2.113602e+01 -3.889677e-17 -6.732431e+00)) ((-2.875782e-14 -6.643894e+02 1.073190e-14) (1.594513e-18 2.369306e+01 3.102027e-17))
0.0469539     	((1.069666e+02 1.969778e-14 1.700373e+03) (2.093989e+01 -3.715410e-17 -6.654115e+00)) ((-2.866421e-14 -6.652029e+02 1.072958e-14) (-3.436480e-18 2.342182e+01 5.964607e-17))
0.0473163     	((9.608952e+01 2.248012e-14 1.549851e+03) (2.073687e+01 -3.415519e-17 -6.555188e+00)) ((-2.023793e-14 -5.987642e+02 1.116864e-14) (-1.027363e-17 2.313105e+01 9.027086e-17))
0.0476787     	((1.064347e+02 1.953487e-14 1.708005e+03) (2.026911e+01 -3.414210e-17 -6.338507e+00)) ((-2.840345e-14 -6.696408e+02 1.062126e-14) (5.960853e-18 2.246334e+01 1.613209e-16))
0.0480411     	((1.062443e+02 1.970152e-14 1.709699e+03) (2.002709e+01 -3.578207e-17 -6.192296e+00)) ((-2.873339e-14 -6.716267e+02 1.073351e-14) (2.055911e-17 2.208608e+01 1.914228e-16))
0.0484035     	((1.061936e+02 1.964876e-14 1.714459e+03) (1.994161e+01 -3.586732e-17 -6.177851e+00)) ((-2.876000e-14 -6.747720e+02 1.071622e-14) (1.714220e-17 2.198653e+01 1.959931e-16))
0.0487659     	((1.048033e+02 1.994323e-14 1.700745e+03) (1.987122e+01 -3.568442e-17 -6.176844e+00)) ((-2.778635e-14 -6.698114e+02 1.075521e-14) (1.317063e-17 2.191468e+01 1.981179e-16))
0.0491283     	((1.056060e+02 1.963036e-14 1.718267e+03) (1.980673e+01 -3.537861e-17 -6.180276e+00)) ((-2.851284e-14 -6.785686e+02 1.068415e-14) (9.398107e-18 2.185340e+01 1.981138e-16))
0.0494907     	((1.050388e+02 1.972761e-14 1.716580e+03) (1.973497e+01 -3.571303e-17 -6.182008e+00)) ((-2.839648e-14 -6.787612e+02 1.071335e-14) (6.123449e-18 2.178409e+01 1.961797e-16))
0.049853      	((9.347023e+01 2.140648e-14 1.564250e+03) (1.964493e+01 -3.610635e-17 -6.161819e+00)) ((-2.365714e-14 -6.098759e+02 1.092666e-14) (1.967948e-18 2.168287e+01 1.919226e-16))
0.0502154     	((1.046169e+02 1.967030e-14 1.725243e+03) (1.954569e+01 -3.589636e-17 -6.148522e+00)) ((-2.845769e-14 -6.844413e+02 1.068748e-14) (-3.107957e-18 2.157609e+01 1.877934e-16))
0.0505778     	((1.045668e+02 1.957831e-14 1.732191e+03) (1.946356e+01 -3.525846e-17 -6.146704e+00)) ((-2.850314e-14 -6.883863e+02 1.064544e-14) (-8.869775e-18 2.149434e+01 1.843372e-16))
0.0509402     	((1.043353e+02 1.954956e-14 1.735941e+03) (1.939429e+01 -3.477836e-17 -6.155398e+00)) ((-2.849099e-14 -6.909291e+02 1.062778e-14) (-1.492428e-17 2.143280e+01 1.813512e-16))
0.0513026     	((1.028167e+02 1.966661e-14 1.722713e+03) (1.933351e+01 -3.420665e-17 -6.168760e+00)) ((-2.792132e-14 -6.858040e+02 1.061385e-14) (-2.154250e-17 2.138378e+01 1.789122e-16))
0.051665      	((1.037015e+02 1.944365e-14 1.740839e+03) (1.927789e+01 -3.321803e-17 -6.183884e+00)) ((-2.832100e-14 -6.949844e+02 1.056106e-14) (-2.885342e-17 2.134168e+01 1.772516e-16))
0.0520274     	((1.015652e+02 1.987353e-14 1.719438e+03) (1.922490e+01 -3.352093e-17 -6.196470e+00)) ((-2.773950e-14 -6.858985e+02 1.069630e-14) (-3.453428e-17 2.130118e+01 1.751992e-16))
0.0523898     	((9.156224e+01 2.211998e-14 1.595344e+03) (1.915416e+01 -3.407407e-17 -6.188804e+00)) ((-2.476691e-14 -6.282595e+02 1.141900e-14) (-3.972471e-17 2.123002e+01 1.729439e-16))
0.0527522     	((1.025067e+02 1.953745e-14 1.745487e+03) (1.907694e+01 -3.444820e-17 -6.191347e+00)) ((-2.819493e-14 -7.000919e+02 1.058078e-14) (-4.274031e-17 2.115865e+01 1.716327e-16))
0.0531146     	((1.024979e+02 1.943844e-14 1.752290e+03) (1.901125e+01 -3.422104e-17 -6.206251e+00)) ((-2.821830e-14 -7.041075e+02 1.052969e-14) (-4.461212e-17 2.110739e+01 1.710706e-16))
0.053477      	((1.021711e+02 1.945845e-14 1.755203e+03) (1.895736e+01 -3.362585e-17 -6.233067e+00)) ((-2.821839e-14 -7.062878e+02 1.052637e-14) (-4.513284e-17 2.107565e+01 1.709605e-16))
0.0538394     	((1.007141e+02 1.971843e-14 1.743046e+03) (1.891460e+01 -3.326086e-17 -6.262846e+00)) ((-2.784300e-14 -7.010252e+02 1.060076e-14) (-4.386980e-17 2.105741e+01 1.709139e-16))
0.0542017     	((1.017369e+02 1.943841e-14 1.762629e+03) (1.888122e+01 -3.330362e-17 -6.291894e+00)) ((-2.829706e-14 -7.107482e+02 1.051868e-14) (-4.022864e-17 2.104828e+01 1.712706e-16))
0.0545641     	((8.672173e+01 2.403605e-14 1.581958e+03) (1.885535e+01 -3.343632e-17 -6.310322e+00)) ((-2.547815e-14 -6.238190e+02 1.243262e-14) (-3.544634e-17 2.104006e+01 1.712778e-16))
0.0549265     	((9.960138e+01 1.991297e-14 1.750529e+03) (1.880910e+01 -3.290716e-17 -6.318130e+00)) ((-2.823366e-14 -7.066025e+02 1.073425e-14) (-3.110149e-17 2.100331e+01 1.736488e-16))
0.0552889     	((1.001586e+02 1.957019e-14 1.762995e+03) (1.877676e+01 -2.900086e-17 -6.331662e+00)) ((-2.829124e-14 -7.132794e+02 1.056581e-14) (-2.967680e-17 2.098415e+01 1.783016e-16))
0.0556513     	((9.978735e+01 1.951392e-14 1.766993e+03) (1.876175e+01 -2.527468e-17 -6.353630e+00)) ((-2.816723e-14 -7.163335e+02 1.052119e-14) (-2.629109e-17 2.098750e+01 1.837481e-16))
0.0560137     	((9.887332e+01 1.970992e-14 1.761906e+03) (1.876488e+01 -2.295526e-17 -6.379105e+00)) ((-2.799971e-14 -7.147256e+02 1.060048e-14) (-1.934352e-17 2.101051e+01 1.889884e-16))
0.0563761     	((9.931808e+01 1.947405e-14 1.776424e+03) (1.878519e+01 -2.058012e-17 -6.397702e+00)) ((-2.820677e-14 -7.224187e+02 1.051732e-14) (-9.713621e-18 2.104463e+01 1.949862e-16))
0.0567385     	((9.862039e+01 1.965065e-14 1.778323e+03) (1.881425e+01 -2.116227e-17 -6.401779e+00)) ((-2.840932e-14 -7.236765e+02 1.062688e-14) (3.833337e-18 2.107599e+01 1.989973e-16))
0.0571009     	((8.272648e+01 2.619833e-14 1.598884e+03) (1.884325e+01 -2.535112e-17 -6.386536e+00)) ((-3.218713e-14 -6.348748e+02 1.421903e-14) (2.221587e-17 2.109308e+01 2.007809e-16))
0.0574633     	((9.856559e+01 1.930026e-14 1.796836e+03) (1.886549e+01 -2.473246e-17 -6.367769e+00)) ((-2.813545e-14 -7.341938e+02 1.037861e-14) (3.774023e-17 2.109976e+01 2.075977e-16))
0.0578257     	((9.831678e+01 1.932307e-14 1.800680e+03) (1.891256e+01 -2.238257e-17 -6.358272e+00)) ((-2.805700e-14 -7.372994e+02 1.036597e-14) (4.959380e-17 2.113735e+01 2.171511e-16))
0.058188      	((9.679416e+01 1.966144e-14 1.790855e+03) (1.898146e+01 -1.924648e-17 -6.354846e+00)) ((-2.773834e-14 -7.336412e+02 1.048119e-14) (5.661738e-17 2.120098e+01 2.264018e-16))