# Forces      
# CofR        : (0.000000e+00 0.000000e+00 -1.000000e+00)
# Time        forces(pressure viscous)	moments(pressure viscous)
0             	((5.684342e-14 6.040500e-14 5.684342e-13) (1.475810e+01 -9.299703e-18 2.711254e+00)) ((-7.029300e-14 1.136868e-13 2.982665e-14) (-1.342385e-17 1.346666e+01 9.031715e-17))
1.19976e-05   	((1.746537e+05 -1.566805e-12 1.738236e+06) (1.496652e+01 -9.685615e-18 2.347264e+00)) ((-2.538354e-11 -4.859090e+05 -1.477095e-12) (-4.600545e-18 1.379819e+01 8.833899e-17))
2.63878e-05   	((2.023187e+04 -5.006352e-13 2.838601e+05) (1.496785e+01 -9.447552e-18 2.213103e+00)) ((-3.226887e-12 -9.703843e+04 -3.962769e-13) (-2.325901e-18 1.384647e+01 8.783320e-17))
4.36511e-05   	((1.216189e+04 -2.620276e-13 1.672019e+05) (1.498070e+01 -9.218486e-18 2.125343e+00)) ((-2.022759e-12 -5.666763e+04 -2.212621e-13) (-1.528617e-18 1.389598e+01 8.766800e-17))
6.43527e-05   	((8.338738e+03 -1.616801e-13 1.115371e+05) (1.499343e+01 -8.746612e-18 2.056388e+00)) ((-1.435703e-12 -3.781050e+04 -1.480693e-13) (-2.575489e-19 1.394475e+01 8.807023e-17))
8.91792e-05   	((6.160177e+03 -1.055159e-13 8.045038e+04) (1.501069e+01 -8.221938e-18 1.974964e+00)) ((-1.045107e-12 -2.704567e+04 -9.921959e-14) (5.928331e-19 1.400460e+01 8.850980e-17))
0.000118941   	((4.440840e+03 -6.893955e-14 5.803578e+04) (1.502655e+01 -7.533816e-18 1.887790e+00)) ((-7.611117e-13 -1.959445e+04 -6.812047e-14) (1.116723e-18 1.407034e+01 8.935371e-17))
0.000154634   	((3.714513e+03 -4.642759e-14 4.398595e+04) (1.504331e+01 -6.674225e-18 1.789310e+00)) ((-5.961070e-13 -1.470309e+04 -4.872467e-14) (1.561737e-18 1.414529e+01 9.170045e-17))
0.000197405   	((2.726988e+03 -2.959383e-14 3.398701e+04) (1.507050e+01 -5.680757e-18 1.677535e+00)) ((-4.559175e-13 -1.146182e+04 -3.432439e-14) (2.036959e-18 1.423733e+01 9.441309e-17))
0.000248707   	((2.408147e+03 -1.459713e-14 2.584851e+04) (1.513283e+01 -4.577313e-18 1.601330e+00)) ((-3.668229e-13 -8.420120e+03 -2.034057e-14) (8.720411e-19 1.433599e+01 9.736108e-17))
0.000310237   	((9.252373e+02 -7.843887e-14 3.267326e+04) (1.516606e+01 -3.607696e-18 1.449305e+00)) ((-2.387333e-13 -1.635396e+04 -6.918747e-14) (1.803819e-18 1.447867e+01 1.032971e-16))
0.000383982   	((1.753315e+03 9.037972e-15 1.582962e+04) (1.528898e+01 -3.590849e-18 1.353928e+00)) ((-2.796570e-13 -4.614580e+03 -4.408601e-15) (4.114394e-18 1.467390e+01 1.053373e-16))
0.000472342   	((1.489860e+03 1.257701e-14 1.353557e+04) (1.547897e+01 -3.991924e-18 1.284342e+00)) ((-2.340699e-13 -3.866435e+03 1.471724e-16) (5.624101e-18 1.492669e+01 1.077872e-16))
0.000577897   	((1.405966e+03 1.405678e-14 1.149653e+04) (1.573301e+01 -3.674974e-18 1.274839e+00)) ((-2.107175e-13 -3.243439e+03 1.440893e-15) (6.037275e-18 1.522992e+01 1.120520e-16))
0.000704014   	((9.512316e+02 1.015949e-14 1.031380e+04) (1.603501e+01 -3.304276e-18 1.294843e+00)) ((-1.626799e-13 -3.451095e+03 -2.126308e-16) (6.709141e-18 1.557643e+01 1.156849e-16))
0.000830962   	((1.031738e+03 7.386708e-15 1.034703e+04) (1.631719e+01 -2.916118e-18 1.335020e+00)) ((-1.626881e-13 -3.492351e+03 -2.057058e-15) (7.432784e-18 1.589074e+01 1.174681e-16))
0.000960482   	((1.093598e+03 1.206452e-14 8.990639e+03) (1.658742e+01 -2.590375e-18 1.369921e+00)) ((-1.627747e-13 -2.792593e+03 1.311743e-15) (8.783613e-18 1.618855e+01 1.133695e-16))
0.00109179    	((9.231578e+02 1.211174e-14 8.610317e+03) (1.684317e+01 -2.281234e-18 1.393488e+00)) ((-1.448586e-13 -2.806927e+03 1.634351e-15) (1.027381e-17 1.647254e+01 1.065643e-16))
0.00121457    	((9.438558e+02 1.331653e-14 7.472447e+03) (1.706022e+01 -1.999672e-18 1.412886e+00)) ((-1.549653e-13 -2.260548e+03 2.430907e-15) (1.284669e-17 1.671493e+01 1.019366e-16))
0.00133346    	((8.483970e+02 1.160545e-14 7.876684e+03) (1.726225e+01 -1.741060e-18 1.420478e+00)) ((-1.362536e-13 -2.596905e+03 1.452852e-15) (1.429207e-17 1.694217e+01 9.946420e-17))
0.00145086    	((8.686553e+02 9.538723e-15 7.082149e+03) (1.744194e+01 -1.594381e-18 1.423557e+00)) ((-1.338954e-13 -2.309436e+03 1.541518e-15) (1.530567e-17 1.714580e+01 9.832694e-17))
0.00156128    	((8.659609e+02 1.035069e-14 7.215683e+03) (1.760792e+01 -1.311362e-18 1.423431e+00)) ((-1.327196e-13 -2.365824e+03 1.431398e-15) (1.593174e-17 1.733349e+01 9.761372e-17))
0.00167303    	((8.155417e+02 1.161696e-14 6.947416e+03) (1.777561e+01 -1.093025e-18 1.414624e+00)) ((-1.264470e-13 -2.301727e+03 2.029543e-15) (1.602919e-17 1.752368e+01 9.773041e-17))
0.00178277    	((8.883082e+02 2.191569e-15 7.315422e+03) (1.792133e+01 -7.638372e-19 1.420639e+00)) ((-1.312098e-13 -2.616960e+03 -2.955472e-15) (1.597373e-17 1.768692e+01 9.924794e-17))
0.0018893     	((9.954332e+02 8.591717e-15 7.208535e+03) (1.807520e+01 -5.732172e-19 1.413644e+00)) ((-1.338363e-13 -2.358400e+03 2.753933e-16) (1.639346e-17 1.785951e+01 9.846439e-17))
0.0019946     	((1.321414e+03 5.832748e-15 7.447727e+03) (1.823743e+01 -4.139039e-19 1.399447e+00)) ((-1.529945e-13 -2.292457e+03 -1.427439e-15) (1.694893e-17 1.804020e+01 9.774146e-17))
0.00209867    	((2.336158e+03 -3.142998e-15 9.068471e+03) (1.842563e+01 -1.504021e-19 1.397292e+00)) ((-2.159450e-13 -2.405572e+03 -7.226602e-15) (1.682464e-17 1.824312e+01 9.689157e-17))
0.00220097    	((6.437776e+03 -3.429003e-14 1.546326e+04) (1.880314e+01 -2.780540e-19 1.327963e+00)) ((-4.679133e-13 -2.620580e+03 -2.785566e-14) (1.643813e-17 1.864749e+01 9.352915e-17))
0.00229823    	((3.836526e+02 6.270307e-15 6.215516e+03) (1.895730e+01 8.466149e-20 1.350459e+00)) ((-1.173976e-13 -2.776708e+03 -3.911096e-15) (1.793608e-17 1.881038e+01 9.517038e-17))
0.00239712    	((1.293897e+02 -1.813018e-15 8.135857e+03) (1.909832e+01 1.813257e-19 1.335686e+00)) ((-7.442607e-14 -3.825212e+03 -7.476088e-15) (1.818144e-17 1.896664e+01 9.741103e-17))
0.00249227    	((1.607476e+02 1.544751e-15 7.369692e+03) (1.920062e+01 2.603569e-19 1.361964e+00)) ((-7.272045e-14 -3.425741e+03 -5.108458e-15) (1.805367e-17 1.907319e+01 9.972021e-17))
0.00258442    	((1.557767e+01 -1.455641e-14 9.520622e+03) (1.932483e+01 3.238371e-19 1.373219e+00)) ((-5.615685e-14 -4.985165e+03 -1.655914e-14) (1.764138e-17 1.920495e+01 1.003806e-16))
0.00269464    	((-5.171638e+02 -7.604361e-14 1.825439e+04) (1.919969e+01 4.607767e-19 1.416140e+00)) ((-2.692177e-15 -1.114396e+04 -6.092075e-14) (2.093727e-17 1.905253e+01 1.288318e-16))
0.00282283    	((2.671156e+02 1.510271e-14 4.273768e+03) (1.946469e+01 9.021338e-19 1.487797e+00)) ((-7.574966e-14 -2.007498e+03 2.926846e-15) (2.614325e-17 1.927927e+01 1.152201e-16))
0.0029684     	((3.444023e+02 1.576670e-14 3.060302e+03) (1.967073e+01 9.495363e-19 1.497552e+00)) ((-7.926520e-14 -1.169517e+03 6.324667e-15) (2.621937e-17 1.950614e+01 1.163946e-16))
0.00313376    	((2.996297e+02 1.996595e-14 2.579751e+03) (1.990820e+01 9.394648e-19 1.523168e+00)) ((-7.584565e-14 -8.997007e+02 8.822722e-15) (2.706681e-17 1.976124e+01 1.142975e-16))
0.00332116    	((2.774039e+02 2.175775e-14 2.210391e+03) (2.020435e+01 8.472278e-19 1.498468e+00)) ((-8.038794e-14 -7.974765e+02 9.221455e-15) (2.844810e-17 2.006978e+01 1.221231e-16))
0.00341757    	((2.242004e+02 1.797600e-14 3.594257e+03) (2.045869e+01 8.031912e-19 1.473192e+00)) ((-6.690813e-14 -1.365521e+03 7.740553e-15) (2.902648e-17 2.032072e+01 1.276012e-16))
0.00351686    	((2.743886e+02 1.620721e-14 3.071657e+03) (2.077772e+01 4.688701e-19 1.477634e+00)) ((-6.855827e-14 -1.119585e+03 7.792765e-15) (3.014011e-17 2.061917e+01 1.355599e-16))
0.00361737    	((4.763984e+02 1.560647e-14 3.161742e+03) (2.168542e+01 6.333645e-19 1.490404e+00)) ((-9.088572e-14 -1.067238e+03 6.986220e-15) (3.176091e-17 2.145692e+01 1.479285e-16))
0.00371913    	((3.426449e+02 1.914815e-14 2.462401e+03) (2.273557e+01 4.768059e-19 1.556008e+00)) ((-7.771111e-14 -9.190019e+02 8.223102e-15) (3.472648e-17 2.240646e+01 1.606429e-16))
0.00382217    	((5.583871e+02 3.767751e-15 3.567941e+03) (2.446231e+01 9.288085e-19 1.656640e+00)) ((-7.243101e-14 -1.570970e+03 7.081082e-16) (3.400730e-17 2.401107e+01 1.316322e-16))
0.00392587    	((2.340341e+03 2.461415e-15 5.036964e+03) (2.587895e+01 7.369308e-19 1.740554e+00)) ((-1.835828e-13 -9.347144e+02 -4.919236e-15) (3.509434e-17 2.530529e+01 1.436545e-16))
0.00403163    	((1.875597e+02 1.869575e-14 3.291711e+03) (2.694361e+01 5.704764e-19 1.786903e+00)) ((-6.213606e-14 -1.254097e+03 8.201029e-15) (3.540469e-17 2.627522e+01 1.517343e-16))
0.00415736    	((1.524826e+02 1.616887e-14 3.490114e+03) (2.770774e+01 3.453505e-19 1.837268e+00)) ((-5.751244e-14 -1.471313e+03 6.422207e-15) (3.733071e-17 2.694196e+01 1.739502e-16))
0.00430682    	((8.844124e+01 2.329059e-15 4.558441e+03) (2.917174e+01 1.531772e-18 1.872255e+00)) ((-5.697309e-14 -2.479969e+03 -3.059192e-15) (3.508263e-17 2.834583e+01 1.058408e-16))
0.00447556    	((1.608080e+02 2.002389e-14 2.836962e+03) (2.972598e+01 1.359436e-18 1.867416e+00)) ((-5.450414e-14 -1.080940e+03 9.231660e-15) (3.375621e-17 2.885713e+01 1.007746e-16))
0.0046582     	((1.634746e+02 2.069643e-14 2.655208e+03) (2.998725e+01 1.093229e-18 1.867835e+00)) ((-5.359366e-14 -9.953520e+02 9.685349e-15) (3.016936e-17 2.909268e+01 9.819715e-17))
0.00486007    	((1.647157e+02 2.283481e-14 2.383200e+03) (3.006101e+01 1.067316e-18 1.859417e+00)) ((-5.209850e-14 -8.657769e+02 1.067462e-14) (2.790850e-17 2.915992e+01 9.002283e-17))
0.00508604    	((1.710189e+02 2.224384e-14 2.271678e+03) (2.998299e+01 9.715702e-19 1.814627e+00)) ((-5.322294e-14 -8.146120e+02 1.053798e-14) (2.715916e-17 2.909223e+01 8.751104e-17))
0.00531548    	((1.795840e+02 2.228567e-14 2.112701e+03) (2.971941e+01 9.919081e-19 1.824064e+00)) ((-6.112829e-14 -7.754995e+02 1.035501e-14) (2.917132e-17 2.883652e+01 9.192743e-17))
0.00556437    	((1.694761e+02 2.252805e-14 1.993716e+03) (2.952856e+01 1.163377e-18 1.789807e+00)) ((-6.345646e-14 -7.202936e+02 1.056925e-14) (2.893166e-17 2.867186e+01 9.348141e-17))
0.00579351    	((1.519753e+02 2.188423e-14 2.197646e+03) (2.929792e+01 1.051810e-18 1.779057e+00)) ((-5.077329e-14 -8.012623e+02 1.054514e-14) (3.307763e-17 2.845076e+01 1.354419e-16))
0.0059587     	((1.649574e+02 2.123989e-14 2.021209e+03) (2.910215e+01 8.214885e-19 1.761194e+00)) ((-6.004848e-14 -7.914851e+02 9.818492e-15) (3.541134e-17 2.826003e+01 1.694272e-16))
0.00610053    	((2.279217e+02 1.871416e-14 1.328433e+03) (2.996009e+01 1.644580e-18 1.695065e+00)) ((-7.008705e-14 -5.976191e+02 8.694111e-15) (3.447436e-17 2.917646e+01 9.836682e-17))
0.00620912    	((1.507347e+02 2.148176e-14 2.325240e+03) (2.994049e+01 1.433735e-18 1.651266e+00)) ((-4.987689e-14 -8.544180e+02 1.035145e-14) (3.470734e-17 2.918592e+01 1.038009e-16))
0.0063144     	((1.597017e+02 2.149406e-14 2.259457e+03) (2.986156e+01 1.239737e-18 1.618407e+00)) ((-5.038100e-14 -8.296696e+02 1.031608e-14) (3.456977e-17 2.913167e+01 1.079218e-16))
0.00642844    	((1.590070e+02 2.706777e-14 1.985497e+03) (2.972557e+01 8.913662e-19 1.611477e+00)) ((-6.722247e-14 -7.488368e+02 1.189581e-14) (3.457252e-17 2.901434e+01 1.180637e-16))
0.00655528    	((1.557992e+02 2.223100e-14 2.108384e+03) (2.949277e+01 6.298500e-19 1.604015e+00)) ((-5.142801e-14 -7.732648e+02 1.065767e-14) (3.380437e-17 2.879628e+01 1.193754e-16))
0.00669533    	((1.449459e+02 2.189164e-14 2.134315e+03) (2.912369e+01 3.873161e-19 1.596094e+00)) ((-4.909794e-14 -7.963188e+02 1.054070e-14) (3.294821e-17 2.843974e+01 1.257281e-16))
0.00685186    	((1.491667e+02 2.249359e-14 2.015138e+03) (2.865041e+01 1.798489e-19 1.598776e+00)) ((-5.560499e-14 -7.653166e+02 1.056305e-14) (3.392354e-17 2.796172e+01 1.368656e-16))
0.00702953    	((1.478343e+02 2.192311e-14 2.008845e+03) (2.801978e+01 3.326183e-20 1.600657e+00)) ((-5.040938e-14 -7.610043e+02 1.048282e-14) (3.585805e-17 2.731523e+01 1.600058e-16))
0.00722908    	((1.724123e+02 2.241040e-14 1.584021e+03) (2.849974e+01 7.414443e-19 1.483338e+00)) ((-5.269348e-14 -6.243500e+02 1.056662e-14) (2.331904e-17 2.787669e+01 6.459661e-17))
0.00745313    	((1.516383e+02 2.254719e-14 1.827180e+03) (2.823309e+01 5.718031e-19 1.308796e+00)) ((-4.815540e-14 -7.037239e+02 1.068328e-14) (1.443197e-17 2.768491e+01 5.015972e-17))
0.00762985    	((1.373863e+02 2.159210e-14 2.062951e+03) (2.804885e+01 1.433742e-18 1.112137e+00)) ((-4.645511e-14 -7.870179e+02 1.043930e-14) (7.192675e-18 2.758168e+01 4.624707e-17))
0.00782016    	((1.386607e+02 2.178676e-14 2.003931e+03) (2.785596e+01 3.941883e-19 8.250571e-01)) ((-4.653435e-14 -7.644672e+02 1.052043e-14) (4.513223e-18 2.749836e+01 5.131288e-17))
0.00794703    	((1.388637e+02 2.163425e-14 2.047682e+03) (2.774512e+01 3.232935e-19 5.948089e-01)) ((-4.694491e-14 -7.828438e+02 1.042524e-14) (7.238785e-18 2.747572e+01 5.942948e-17))
0.00805184    	((1.409607e+02 2.158321e-14 2.061679e+03) (2.765882e+01 5.973303e-19 3.912322e-01)) ((-4.762474e-14 -7.869495e+02 1.038833e-14) (1.663106e-17 2.747046e+01 7.225075e-17))
0.00814592    	((1.384197e+02 2.172068e-14 2.045226e+03) (2.760614e+01 8.052966e-19 2.303637e-01)) ((-4.754581e-14 -7.770512e+02 1.048964e-14) (3.483197e-17 2.748594e+01 8.929477e-17))
0.00823438    	((1.381848e+02 2.166401e-14 2.048071e+03) (2.745089e+01 1.267830e-18 1.147876e-01)) ((-4.794526e-14 -7.804747e+02 1.045182e-14) (5.951938e-17 2.738068e+01 1.181277e-16))
0.00832026    	((1.364622e+02 2.153973e-14 2.055593e+03) (2.757630e+01 2.476802e-18 -1.049312e-03)) ((-4.784763e-14 -7.915455e+02 1.036447e-14) (8.107963e-17 2.756844e+01 1.180396e-16))
0.00840742    	((1.394202e+02 2.172151e-14 2.021935e+03) (2.742552e+01 3.273557e-18 -1.195061e-01)) ((-4.753137e-14 -7.680870e+02 1.049725e-14) (9.848116e-17 2.747022e+01 1.434808e-16))
0.00849729    	((1.376578e+02 2.184112e-14 1.997129e+03) (2.727046e+01 3.858004e-18 -2.528878e-01)) ((-4.663651e-14 -7.557160e+02 1.058451e-14) (1.132276e-16 2.737460e+01 1.720682e-16))
0.00859005    	((1.343555e+02 2.176177e-14 2.005069e+03) (2.724768e+01 6.581936e-18 -4.068956e-01)) ((-4.577949e-14 -7.650139e+02 1.053766e-14) (1.227788e-16 2.742713e+01 1.791403e-16))
0.00868514    	((1.347123e+02 2.181138e-14 1.989736e+03) (2.717505e+01 9.137937e-18 -5.698987e-01)) ((-4.617403e-14 -7.570231e+02 1.057393e-14) (1.335427e-16 2.743292e+01 1.925569e-16))
0.00878268    	((1.328876e+02 2.164559e-14 2.008760e+03) (2.716052e+01 7.921773e-18 -7.609287e-01)) ((-4.551569e-14 -7.736931e+02 1.045093e-14) (1.480694e-16 2.751239e+01 1.968311e-16))
0.00887855    	((1.332150e+02 2.177451e-14 1.983045e+03) (2.705608e+01 6.570694e-18 -9.503376e-01)) ((-4.615625e-14 -7.587417e+02 1.054107e-14) (1.644400e-16 2.749868e+01 2.095677e-16))
0.00896824    	((1.323484e+02 2.155529e-14 2.014370e+03) (2.707770e+01 4.852197e-18 -1.141529e+00)) ((-4.615585e-14 -7.817207e+02 1.037749e-14) (1.799714e-16 2.761814e+01 2.067356e-16))
0.00905376    	((1.329703e+02 2.174170e-14 1.988860e+03) (2.696127e+01 2.055201e-18 -1.315020e+00)) ((-4.618145e-14 -7.634556e+02 1.050797e-14) (1.981297e-16 2.758819e+01 2.183606e-16))
0.00913606    	((1.656876e+02 2.333907e-14 1.279455e+03) (2.702272e+01 -1.311578e-18 -1.494423e+00)) ((-9.157403e-14 -5.676484e+02 1.063281e-14) (2.161413e-16 2.774772e+01 2.165388e-16))
0.00921422    	((1.551702e+02 2.285859e-14 1.540200e+03) (2.693213e+01 -5.634811e-18 -1.648281e+00)) ((-7.400853e-14 -6.340919e+02 1.065200e-14) (2.356637e-16 2.773856e+01 2.259289e-16))
0.00928912    	((1.327109e+02 2.166347e-14 1.987454e+03) (2.692441e+01 -9.855439e-18 -1.800154e+00)) ((-4.726888e-14 -7.764991e+02 1.038069e-14) (2.537211e-16 2.781520e+01 2.189851e-16))
0.00936101    	((1.337780e+02 2.184125e-14 1.966213e+03) (2.681404e+01 -1.388070e-17 -1.930739e+00)) ((-4.707267e-14 -7.599416e+02 1.050238e-14) (2.714724e-16 2.777650e+01 2.204514e-16))
0.00943054    	((1.322334e+02 2.185708e-14 1.973506e+03) (2.675864e+01 -1.416308e-17 -2.042051e+00)) ((-4.642411e-14 -7.634078e+02 1.050928e-14) (2.837064e-16 2.778944e+01 2.166920e-16))
0.00949917    	((1.322653e+02 2.194575e-14 1.964589e+03) (2.664170e+01 -1.380678e-17 -2.121194e+00)) ((-4.619414e-14 -7.577674e+02 1.055877e-14) (2.939364e-16 2.772581e+01 2.130970e-16))
0.00956736    	((1.319221e+02 2.199813e-14 1.959230e+03) (2.651232e+01 -1.338746e-17 -2.177271e+00)) ((-4.616096e-14 -7.564910e+02 1.057241e-14) (3.027177e-16 2.764152e+01 2.069154e-16))
0.00963555    	((1.299028e+02 2.209342e-14 1.955982e+03) (2.636535e+01 -1.279655e-17 -2.218681e+00)) ((-4.554657e-14 -7.534365e+02 1.063157e-14) (3.107843e-16 2.753358e+01 2.034645e-16))
0.00970419    	((1.305283e+02 2.185460e-14 1.986876e+03) (2.621596e+01 -1.172969e-17 -2.251395e+00)) ((-4.582509e-14 -7.767552e+02 1.043465e-14) (3.174172e-16 2.742013e+01 1.981537e-16))
0.00977423    	((1.290718e+02 2.209631e-14 1.953296e+03) (2.604682e+01 -1.040579e-17 -2.286345e+00)) ((-4.522581e-14 -7.548563e+02 1.061619e-14) (3.230862e-16 2.728624e+01 1.889936e-16))
0.00984574    	((1.282307e+02 2.203771e-14 1.946056e+03) (2.591583e+01 -7.978793e-18 -2.347747e+00)) ((-4.497628e-14 -7.505167e+02 1.061938e-14) (3.280766e-16 2.720209e+01 1.808687e-16))
0.00991932    	((1.286606e+02 2.195174e-14 1.940692e+03) (2.579057e+01 -5.687589e-18 -2.421319e+00)) ((-4.490980e-14 -7.482531e+02 1.059317e-14) (3.329383e-16 2.712809e+01 1.686711e-16))
0.00999511    	((1.287950e+02 2.191843e-14 1.935043e+03) (2.566763e+01 -3.509284e-18 -2.498753e+00)) ((-4.481318e-14 -7.451276e+02 1.059184e-14) (3.382940e-16 2.705812e+01 1.630329e-16))
0.0100733     	((1.291115e+02 2.188463e-14 1.929951e+03) (2.556447e+01 -1.339946e-18 -2.579439e+00)) ((-4.481069e-14 -7.432168e+02 1.058037e-14) (3.433710e-16 2.701074e+01 1.588617e-16))
0.010154      	((1.284588e+02 2.193229e-14 1.915673e+03) (2.545454e+01 -2.308076e-19 -2.660774e+00)) ((-4.458503e-14 -7.356807e+02 1.062531e-14) (3.487683e-16 2.695656e+01 1.487862e-16))
0.0102374     	((1.265382e+02 2.190959e-14 1.924056e+03) (2.535138e+01 -5.143557e-19 -2.746937e+00)) ((-4.394264e-14 -7.383844e+02 1.063188e-14) (3.555186e-16 2.691162e+01 1.376890e-16))
0.0103246     	((1.269879e+02 2.191217e-14 1.910891e+03) (2.527713e+01 -1.877424e-18 -2.842106e+00)) ((-4.401605e-14 -7.335000e+02 1.063741e-14) (3.628948e-16 2.690157e+01 1.217838e-16))
0.0104052     	((1.275249e+02 2.181305e-14 1.924082e+03) (2.518424e+01 -3.297278e-18 -2.936434e+00)) ((-4.427726e-14 -7.426605e+02 1.056040e-14) (3.712096e-16 2.687058e+01 1.156307e-16))
0.0104839     	((1.269394e+02 2.207005e-14 1.908855e+03) (2.511342e+01 -7.426567e-18 -3.046286e+00)) ((-4.407013e-14 -7.335824e+02 1.068261e-14) (3.831603e-16 2.686989e+01 1.075982e-16))
0.0105594     	((1.263498e+02 2.216366e-14 1.921849e+03) (2.504953e+01 -1.188332e-17 -3.166570e+00)) ((-4.409808e-14 -7.431819e+02 1.067003e-14) (3.958581e-16 2.688016e+01 9.905635e-17))
0.0106355     	((1.334673e+02 2.476436e-14 1.709431e+03) (2.499865e+01 -1.623652e-17 -3.297649e+00)) ((-5.133871e-14 -6.756670e+02 1.144646e-14) (4.090893e-16 2.690942e+01 9.257901e-17))
0.0107081     	((1.627751e+02 3.533829e-14 9.458186e+02) (2.503182e+01 -2.010090e-17 -3.420701e+00)) ((-8.176600e-14 -4.593829e+02 1.436166e-14) (4.206671e-16 2.702423e+01 8.947171e-17))
0.010778      	((1.277372e+02 2.224802e-14 1.910697e+03) (2.500130e+01 -2.359931e-17 -3.535638e+00)) ((-4.400473e-14 -7.372177e+02 1.071533e-14) (4.315068e-16 2.706793e+01 8.526139e-17))
0.0108448     	((1.267689e+02 2.234422e-14 1.884930e+03) (2.496508e+01 -2.663028e-17 -3.639054e+00)) ((-4.489129e-14 -7.291493e+02 1.075353e-14) (4.404223e-16 2.709948e+01 7.810330e-17))
0.0109097     	((1.288194e+02 2.233799e-14 1.874522e+03) (2.490139e+01 -2.955706e-17 -3.726313e+00)) ((-4.577923e-14 -7.276527e+02 1.072192e-14) (4.476686e-16 2.709388e+01 6.855665e-17))
0.0109724     	((1.263504e+02 2.226634e-14 1.896544e+03) (2.482895e+01 -2.902321e-17 -3.794795e+00)) ((-4.433092e-14 -7.333683e+02 1.072598e-14) (4.496628e-16 2.707030e+01 6.056132e-17))
0.0110334     	((1.256474e+02 2.222452e-14 1.901573e+03) (2.478134e+01 -2.743878e-17 -3.846780e+00)) ((-4.388886e-14 -7.344994e+02 1.072130e-14) (4.492817e-16 2.706615e+01 5.586137e-17))
0.0110928     	((1.277806e+02 2.221940e-14 1.892607e+03) (2.467693e+01 -2.572343e-17 -3.876910e+00)) ((-4.461594e-14 -7.351762e+02 1.067357e-14) (4.475974e-16 2.699177e+01 5.251855e-17))
0.0111506     	((1.264811e+02 2.220871e-14 1.904329e+03) (2.450973e+01 -2.385967e-17 -3.887688e+00)) ((-4.415969e-14 -7.392180e+02 1.067484e-14) (4.452139e-16 2.684106e+01 5.031437e-17))
0.0112074     	((1.262417e+02 2.231267e-14 1.895075e+03) (2.432203e+01 -2.181366e-17 -3.892511e+00)) ((-4.394159e-14 -7.320398e+02 1.074409e-14) (4.423621e-16 2.666568e+01 5.029279e-17))
0.0112627     	((1.262951e+02 2.247973e-14 1.874414e+03) (2.410964e+01 -1.945157e-17 -3.890315e+00)) ((-4.383740e-14 -7.206493e+02 1.083793e-14) (4.390889e-16 2.646058e+01 5.473067e-17))
0.0113169     	((1.271084e+02 2.234012e-14 1.888586e+03) (2.390166e+01 -1.848877e-17 -3.900877e+00)) ((-4.406869e-14 -7.293298e+02 1.074960e-14) (4.379340e-16 2.626379e+01 5.832992e-17))
0.0113705     	((1.270344e+02 2.205092e-14 1.918307e+03) (2.365935e+01 -1.878885e-17 -3.929082e+00)) ((-4.446071e-14 -7.500090e+02 1.056123e-14) (4.401380e-16 2.603604e+01 6.909604e-17))
0.0114232     	((1.255318e+02 2.214934e-14 1.897190e+03) (2.347002e+01 -1.952925e-17 -3.979740e+00)) ((-4.370325e-14 -7.321950e+02 1.070079e-14) (4.431187e-16 2.587352e+01 7.623801e-17))
0.0114748     	((1.263141e+02 2.219873e-14 1.881050e+03) (2.331872e+01 -2.050120e-17 -4.043890e+00)) ((-4.397774e-14 -7.245668e+02 1.073294e-14) (4.465246e-16 2.575685e+01 8.210319e-17))
0.0115336     	((1.251139e+02 2.215504e-14 1.875771e+03) (2.318280e+01 -2.182273e-17 -4.126785e+00)) ((-4.335291e-14 -7.199408e+02 1.075528e-14) (4.501144e-16 2.566723e+01 8.098250e-17))
0.0115992     	((1.249163e+02 2.216969e-14 1.859878e+03) (2.305275e+01 -2.325950e-17 -4.224771e+00)) ((-4.322306e-14 -7.131240e+02 1.077795e-14) (4.540767e-16 2.559261e+01 8.181346e-17))
0.0116717     	((1.245048e+02 2.219517e-14 1.849109e+03) (2.297392e+01 -2.472717e-17 -4.338450e+00)) ((-4.297070e-14 -7.071124e+02 1.081134e-14) (4.585076e-16 2.558175e+01 8.847544e-17))
0.0117441     	((1.258545e+02 2.222702e-14 1.836640e+03) (2.290723e+01 -2.613285e-17 -4.450999e+00)) ((-4.353820e-14 -7.042314e+02 1.080027e-14) (4.615282e-16 2.558371e+01 8.536511e-17))
0.0118165     	((1.252761e+02 2.212829e-14 1.852154e+03) (2.284826e+01 -2.579515e-17 -4.560666e+00)) ((-4.336771e-14 -7.117035e+02 1.074715e-14) (4.620391e-16 2.559300e+01 8.067158e-17))
0.0118883     	((1.253914e+02 2.215362e-14 1.843953e+03) (2.283904e+01 -2.472821e-17 -4.670317e+00)) ((-4.335153e-14 -7.069312e+02 1.076970e-14) (4.619275e-16 2.565549e+01 8.251236e-17))
0.0119595     	((1.250270e+02 2.211560e-14 1.848920e+03) (2.280179e+01 -2.313899e-17 -4.770479e+00)) ((-4.321983e-14 -7.088985e+02 1.075473e-14) (4.599224e-16 2.568416e+01 7.661975e-17))
0.0120306     	((1.246291e+02 2.214987e-14 1.840092e+03) (2.282515e+01 -2.052816e-17 -4.874455e+00)) ((-4.303981e-14 -7.032972e+02 1.079194e-14) (4.566737e-16 2.577884e+01 7.406422e-17))
0.0121011     	((1.251968e+02 2.210230e-14 1.841453e+03) (2.284128e+01 -1.877749e-17 -4.975183e+00)) ((-4.323682e-14 -7.054609e+02 1.075624e-14) (4.539860e-16 2.586450e+01 7.196436e-17))
0.0121717     	((1.247603e+02 2.201999e-14 1.850358e+03) (2.285799e+01 -1.862174e-17 -5.075207e+00)) ((-4.320269e-14 -7.117284e+02 1.070407e-14) (4.522543e-16 2.595077e+01 6.523911e-17))
0.0122416     	((1.247718e+02 2.202531e-14 1.844757e+03) (2.287881e+01 -1.966448e-17 -5.173621e+00)) ((-4.324982e-14 -7.099404e+02 1.070581e-14) (4.512421e-16 2.604085e+01 5.688220e-17))
0.0123114     	((1.245582e+02 2.208186e-14 1.842589e+03) (2.292735e+01 -2.119180e-17 -5.272734e+00)) ((-4.312953e-14 -7.091080e+02 1.072519e-14) (4.512124e-16 2.616076e+01 5.432025e-17))
0.0123807     	((1.248785e+02 2.283007e-14 1.803169e+03) (2.294759e+01 -2.290417e-17 -5.364973e+00)) ((-4.345319e-14 -6.952259e+02 1.096619e-14) (4.507464e-16 2.624774e+01 4.742265e-17))
0.01245       	((1.498808e+02 4.185432e-14 7.875333e+02) (2.307846e+01 -2.469507e-17 -5.451023e+00)) ((-6.470225e-14 -3.915388e+02 1.652120e-14) (4.498147e-16 2.645013e+01 4.996563e-17))
0.0125186     	((1.250629e+02 2.185991e-14 1.858996e+03) (2.313131e+01 -2.653591e-17 -5.530071e+00)) ((-4.313012e-14 -7.174787e+02 1.062119e-14) (4.481523e-16 2.656702e+01 3.948694e-17))
0.0125873     	((1.250621e+02 2.194103e-14 1.842915e+03) (2.316471e+01 -2.826589e-17 -5.601397e+00)) ((-4.315853e-14 -7.105623e+02 1.066408e-14) (4.462320e-16 2.666049e+01 3.358521e-17))
0.012654      	((1.251971e+02 2.272435e-14 1.805134e+03) (2.318901e+01 -2.993968e-17 -5.660043e+00)) ((-4.304981e-14 -6.960485e+02 1.092369e-14) (4.435773e-16 2.673878e+01 2.826383e-17))
0.0127208     	((1.254347e+02 2.247106e-14 1.797922e+03) (2.320342e+01 -2.883920e-17 -5.706381e+00)) ((-4.313948e-14 -6.871568e+02 1.090053e-14) (4.366054e-16 2.680190e+01 1.788763e-17))
0.012787      	((1.265186e+02 2.316127e-14 1.749879e+03) (2.323626e+01 -2.671664e-17 -5.738911e+00)) ((-4.441066e-14 -6.715229e+02 1.110914e-14) (4.278736e-16 2.687932e+01 9.605318e-18))
0.0128532     	((1.263989e+02 2.243914e-14 1.786091e+03) (2.321782e+01 -2.446048e-17 -5.755106e+00)) ((-4.322218e-14 -6.821348e+02 1.088875e-14) (4.181844e-16 2.689616e+01 6.533017e-19))
0.0129193     	((1.247087e+02 2.232070e-14 1.797932e+03) (2.317151e+01 -2.237758e-17 -5.761723e+00)) ((-4.255551e-14 -6.861640e+02 1.085907e-14) (4.084616e-16 2.687976e+01 -8.623076e-18))
0.0129855     	((1.252743e+02 2.225589e-14 1.799153e+03) (2.314303e+01 -2.068613e-17 -5.770311e+00)) ((-4.280773e-14 -6.905504e+02 1.079630e-14) (3.993093e-16 2.688295e+01 -2.161898e-17))
0.0130523     	((1.249221e+02 2.218711e-14 1.805818e+03) (2.312049e+01 -2.143818e-17 -5.777365e+00)) ((-4.273077e-14 -6.957721e+02 1.074525e-14) (3.936608e-16 2.689138e+01 -3.099630e-17))
0.0131198     	((1.240192e+02 2.222220e-14 1.797030e+03) (2.309625e+01 -2.349816e-17 -5.804729e+00)) ((-4.231319e-14 -6.879761e+02 1.081148e-14) (3.914689e-16 2.690514e+01 -3.926680e-17))
0.0131872     	((1.243770e+02 2.226365e-14 1.794847e+03) (2.310391e+01 -2.597634e-17 -5.861133e+00)) ((-4.271022e-14 -6.889633e+02 1.081263e-14) (3.913236e-16 2.696530e+01 -4.994910e-17))
0.013254      	((1.243391e+02 2.217368e-14 1.804767e+03) (2.309169e+01 -2.837312e-17 -5.933995e+00)) ((-4.281160e-14 -6.939474e+02 1.077149e-14) (3.922835e-16 2.701123e+01 -5.588201e-17))
0.0133208     	((1.246079e+02 2.222563e-14 1.793710e+03) (2.310603e+01 -3.066382e-17 -6.023193e+00)) ((-4.290570e-14 -6.877540e+02 1.081080e-14) (3.932492e-16 2.709389e+01 -6.267048e-17))
0.0133876     	((1.242416e+02 2.218759e-14 1.797400e+03) (2.310548e+01 -3.295070e-17 -6.121041e+00)) ((-4.275163e-14 -6.887249e+02 1.080415e-14) (3.941844e-16 2.716629e+01 -6.756231e-17))
0.0134544     	((1.240215e+02 2.222392e-14 1.792510e+03) (2.312727e+01 -3.523852e-17 -6.229669e+00)) ((-4.270606e-14 -6.862765e+02 1.082472e-14) (3.948490e-16 2.726966e+01 -7.099532e-17))
0.0135212     	((1.237267e+02 2.219936e-14 1.792211e+03) (2.314346e+01 -3.762854e-17 -6.346969e+00)) ((-4.255290e-14 -6.853717e+02 1.082581e-14) (3.954366e-16 2.737438e+01 -7.410778e-17))
0.0135873     	((1.234498e+02 2.207122e-14 1.808280e+03) (2.317681e+01 -3.895468e-17 -6.475145e+00)) ((-4.281212e-14 -6.989739e+02 1.071341e-14) (3.949650e-16 2.750609e+01 -7.344154e-17))
0.0136527     	((1.229998e+02 2.208722e-14 1.803286e+03) (2.318020e+01 -3.900846e-17 -6.607956e+00)) ((-4.251943e-14 -6.940107e+02 1.075206e-14) (3.926924e-16 2.761155e+01 -7.450150e-17))
0.0137188     	((1.233456e+02 2.212282e-14 1.799172e+03) (2.320032e+01 -3.891651e-17 -6.753000e+00)) ((-4.272331e-14 -6.938903e+02 1.074915e-14) (3.903763e-16 2.774507e+01 -7.257068e-17))
0.013785      	((1.237774e+02 2.209487e-14 1.797099e+03) (2.321787e+01 -3.884221e-17 -6.904016e+00)) ((-4.285576e-14 -6.927574e+02 1.073639e-14) (3.872875e-16 2.788078e+01 -7.405458e-17))
0.0138511     	((1.232931e+02 2.211042e-14 1.790080e+03) (2.323633e+01 -3.931048e-17 -7.059740e+00)) ((-4.253859e-14 -6.859363e+02 1.077777e-14) (3.847232e-16 2.802131e+01 -7.226623e-17))
0.0139172     	((1.246312e+02 2.217682e-14 1.782762e+03) (2.324841e+01 -3.998650e-17 -7.213400e+00)) ((-4.319501e-14 -6.858491e+02 1.076158e-14) (3.821164e-16 2.815399e+01 -7.046135e-17))
0.0139833     	((1.234560e+02 2.201476e-14 1.796904e+03) (2.329767e+01 -4.082616e-17 -7.365826e+00)) ((-4.289119e-14 -6.926431e+02 1.068922e-14) (3.794775e-16 2.832394e+01 -7.100342e-17))
0.0140487     	((1.228383e+02 2.202039e-14 1.787290e+03) (2.331478e+01 -4.213872e-17 -7.499768e+00)) ((-4.258431e-14 -6.848070e+02 1.072703e-14) (3.780344e-16 2.844642e+01 -6.660066e-17))
0.0141141     	((1.224619e+02 2.197808e-14 1.786010e+03) (2.335317e+01 -4.052344e-17 -7.617519e+00)) ((-4.251039e-14 -6.835904e+02 1.071110e-14) (3.731814e-16 2.857748e+01 -6.968365e-17))
0.0141795     	((1.224565e+02 2.196076e-14 1.781747e+03) (2.338551e+01 -3.844464e-17 -7.711325e+00)) ((-4.262338e-14 -6.817946e+02 1.069554e-14) (3.691054e-16 2.868234e+01 -6.726192e-17))
0.0142449     	((1.228990e+02 2.197284e-14 1.773583e+03) (2.344299e+01 -3.610291e-17 -7.781661e+00)) ((-4.284093e-14 -6.775703e+02 1.069530e-14) (3.654720e-16 2.879344e+01 -6.595395e-17))
0.0143103     	((1.226015e+02 2.192435e-14 1.773614e+03) (2.351617e+01 -3.345998e-17 -7.828098e+00)) ((-4.270221e-14 -6.756416e+02 1.068386e-14) (3.618495e-16 2.890070e+01 -6.794286e-17))
0.0143757     	((1.230419e+02 2.195238e-14 1.760990e+03) (2.360122e+01 -3.058535e-17 -7.852453e+00)) ((-4.289456e-14 -6.701742e+02 1.069186e-14) (3.589213e-16 2.900170e+01 -6.465836e-17))
0.0144411     	((1.228045e+02 2.195609e-14 1.751932e+03) (2.368265e+01 -2.751650e-17 -7.858058e+00)) ((-4.249138e-14 -6.668913e+02 1.067337e-14) (3.549831e-16 2.908358e+01 -7.050130e-17))
0.0145065     	((1.354724e+02 3.123655e-14 8.183880e+02) (2.382793e+01 -2.472901e-17 -7.844785e+00)) ((-3.642685e-14 -3.847235e+02 1.262773e-14) (3.518949e-16 2.921969e+01 -6.801300e-17))