# Forces      
# CofR        : (0.000000e+00 0.000000e+00 -1.000000e+00)
# Time        forces(pressure viscous)	moments(pressure viscous)
0             	((0.000000e+00 6.445847e-15 -6.821210e-13) (1.483116e+01 4.350262e-18 2.223956e+00)) ((-1.025239e-13 1.136868e-13 -3.521632e-15) (-5.027358e-18 1.377333e+01 1.085087e-17))
1.19976e-05   	((1.939659e+05 1.097941e-11 1.255230e+06) (1.503372e+01 3.890021e-18 1.946693e+00)) ((-3.141730e-11 -2.323854e+05 6.227520e-12) (2.512230e-18 1.405365e+01 8.756873e-18))
2.63878e-05   	((2.360809e+04 1.993430e-12 2.108039e+05) (1.503048e+01 3.890536e-18 1.844683e+00)) ((-5.166855e-12 -5.269486e+04 1.190291e-12) (4.250395e-18 1.408324e+01 8.585764e-18))
4.36511e-05   	((1.384897e+04 1.172839e-12 1.230359e+05) (1.504010e+01 3.597293e-18 1.782807e+00)) ((-3.085579e-12 -3.083803e+04 6.897923e-13) (4.973603e-18 1.411624e+01 8.307912e-18))
6.43527e-05   	((9.663909e+03 8.446473e-13 8.678346e+04) (1.505582e+01 3.258590e-18 1.722939e+00)) ((-2.216571e-12 -2.245271e+04 4.943970e-13) (5.289506e-18 1.415925e+01 8.063221e-18))
8.91792e-05   	((6.752015e+03 6.066790e-13 6.202539e+04) (1.507708e+01 2.963347e-18 1.661858e+00)) ((-1.608500e-12 -1.643439e+04 3.516793e-13) (5.251320e-18 1.421271e+01 8.252311e-18))
0.000118941   	((4.757098e+03 4.800430e-13 4.976876e+04) (1.509849e+01 3.134992e-18 1.583210e+00)) ((-1.362426e-12 -1.558854e+04 2.622278e-13) (4.851836e-18 1.428246e+01 1.018185e-17))
0.000154634   	((3.849685e+03 3.573064e-13 3.600249e+04) (1.511950e+01 2.856452e-18 1.496216e+00)) ((-9.715031e-13 -1.008397e+04 2.039927e-13) (4.409485e-18 1.435478e+01 1.064951e-17))
0.000197405   	((3.062255e+03 2.690503e-13 2.690075e+04) (1.514091e+01 2.399120e-18 1.402530e+00)) ((-7.504229e-13 -7.401718e+03 1.534373e-13) (3.795719e-18 1.443480e+01 1.096206e-17))
0.000247411   	((2.635163e+03 2.237193e-13 2.233659e+04) (1.518112e+01 1.871699e-18 1.301573e+00)) ((-6.267879e-13 -5.986436e+03 1.273068e-13) (1.686735e-18 1.453510e+01 1.448933e-17))
0.000304499   	((2.112301e+03 1.821831e-13 1.823625e+04) (1.524182e+01 1.452223e-18 1.216731e+00)) ((-5.179023e-13 -4.904167e+03 1.029172e-13) (-2.381085e-18 1.464708e+01 1.987115e-17))
0.000368864   	((1.650773e+03 1.200806e-13 1.859676e+04) (1.532925e+01 1.749699e-18 1.128494e+00)) ((-6.163101e-13 -6.701358e+03 2.223598e-14) (-7.916977e-19 1.479938e+01 1.986487e-17))
0.00044025    	((1.538872e+03 1.233195e-13 1.359839e+04) (1.544349e+01 1.781512e-18 1.066938e+00)) ((-4.179077e-13 -3.909631e+03 5.986065e-14) (-2.322227e-18 1.496077e+01 2.070350e-17))
0.000510863   	((1.524447e+03 1.128143e-13 1.185798e+04) (1.558449e+01 1.886429e-18 1.044317e+00)) ((-3.915175e-13 -3.203495e+03 5.748249e-14) (-1.841602e-18 1.513456e+01 1.995375e-17))
0.000579486   	((1.540732e+03 1.112284e-13 1.159266e+04) (1.576224e+01 1.348093e-18 1.047600e+00)) ((-3.659124e-13 -3.020299e+03 5.765624e-14) (2.582752e-18 1.532509e+01 1.307822e-17))
0.000650624   	((1.369271e+03 9.146716e-14 1.035030e+04) (1.595935e+01 5.622510e-19 1.072778e+00)) ((-3.252354e-13 -2.856451e+03 4.672535e-14) (9.297044e-18 1.552272e+01 2.714807e-18))
0.000719976   	((1.051643e+03 5.036107e-14 1.386958e+04) (1.614532e+01 9.515558e-19 1.059034e+00)) ((-2.218710e-13 -5.756936e+03 8.571866e-15) (2.381065e-18 1.574785e+01 -8.145992e-18))
0.000793564   	((1.141720e+03 7.991665e-14 9.085082e+03) (1.636653e+01 9.899425e-19 1.075397e+00)) ((-2.748736e-13 -2.577430e+03 3.987144e-14) (2.018817e-18 1.597952e+01 -1.310694e-17))
0.00086523    	((1.281149e+03 7.562089e-14 8.246107e+03) (1.657740e+01 1.030412e-18 1.104931e+00)) ((-2.794545e-13 -2.115398e+03 4.016248e-14) (2.126294e-18 1.619425e+01 -1.675917e-17))
0.0009361     	((1.073693e+03 7.827403e-14 8.814477e+03) (1.679933e+01 1.573815e-18 1.135445e+00)) ((-2.790103e-13 -2.818995e+03 3.861255e-14) (1.696155e-18 1.641400e+01 -1.922681e-17))
0.000998197   	((1.200274e+03 7.578218e-14 8.383213e+03) (1.700784e+01 2.027920e-18 1.186167e+00)) ((-2.707913e-13 -2.325722e+03 3.798584e-14) (4.148683e-19 1.659311e+01 -2.017976e-17))
0.00106196    	((7.178707e+02 6.071979e-14 1.321585e+04) (1.718599e+01 1.460419e-18 1.166202e+00)) ((-3.130359e-13 -6.759725e+03 8.151913e-15) (2.186824e-18 1.681470e+01 -1.739307e-17))
0.00112405    	((1.182503e+03 7.173944e-14 7.884205e+03) (1.735402e+01 1.280832e-18 1.176520e+00)) ((-2.693789e-13 -2.384141e+03 3.486416e-14) (2.779816e-18 1.699185e+01 -1.891447e-17))
0.00118804    	((1.126677e+03 7.168809e-14 7.878416e+03) (1.751280e+01 1.719682e-18 1.187139e+00)) ((-2.615239e-13 -2.352250e+03 3.537855e-14) (2.598979e-18 1.715765e+01 -1.981265e-17))
0.00125359    	((1.147429e+03 6.978532e-14 7.577526e+03) (1.767834e+01 2.407397e-18 1.201331e+00)) ((-2.607825e-13 -2.292165e+03 3.426728e-14) (1.837264e-18 1.731899e+01 -2.090859e-17))
0.00131757    	((1.264461e+03 6.668368e-14 6.395661e+03) (1.783912e+01 2.402866e-18 1.283949e+00)) ((-2.667574e-13 -1.754298e+03 3.196654e-14) (2.842905e-18 1.742079e+01 -2.213689e-17))
0.00138312    	((4.419968e+02 7.610117e-14 1.668513e+04) (1.797838e+01 1.082372e-18 1.225915e+00)) ((-3.538870e-13 -1.001649e+04 1.432769e-14) (3.839281e-18 1.762961e+01 -2.243317e-17))
0.00143541    	((1.851725e+03 5.893502e-14 5.758846e+03) (1.808832e+01 1.066434e-18 1.220284e+00)) ((-2.598779e-13 -4.287704e+02 2.947204e-14) (4.073546e-18 1.775171e+01 -2.287728e-17))
0.00148492    	((2.122579e+03 6.848522e-14 6.486502e+03) (1.819148e+01 1.127946e-18 1.204203e+00)) ((-2.876942e-13 -5.561994e+02 3.557927e-14) (4.214227e-18 1.786941e+01 -2.334594e-17))
0.00153678    	((2.563621e+03 8.123161e-14 5.996261e+03) (1.829302e+01 1.017756e-18 1.211839e+00)) ((-3.380402e-13 -3.810708e+02 4.342553e-14) (4.234484e-18 1.797961e+01 -2.322206e-17))
0.0015924     	((3.084335e+03 1.003221e-13 7.296539e+03) (1.841573e+01 7.178320e-19 1.202916e+00)) ((-3.787968e-13 -5.256675e+02 5.855833e-14) (4.304873e-18 1.811411e+01 -2.363731e-17))
0.00164751    	((1.210951e+04 2.653720e-13 1.424509e+04) (1.868236e+01 9.339945e-19 1.149906e+00)) ((-1.152488e-12 2.467322e+03 1.558373e-13) (4.026261e-18 1.839934e+01 -2.486791e-17))
0.00170486    	((5.458061e+02 8.017055e-14 6.914166e+03) (1.880677e+01 1.544935e-18 1.117723e+00)) ((-2.440931e-13 -2.435159e+03 4.491235e-14) (2.980584e-18 1.854178e+01 -2.449772e-17))
0.00176331    	((6.886082e+02 7.590275e-14 5.207501e+03) (1.890107e+01 7.213094e-19 1.145749e+00)) ((-2.465219e-13 -1.921366e+03 4.068493e-14) (2.929807e-18 1.863610e+01 -2.562771e-17))
0.00182252    	((4.504162e+02 8.134687e-14 7.477982e+03) (1.900588e+01 1.008477e-18 1.127778e+00)) ((-2.398807e-13 -2.944359e+03 4.561449e-14) (1.970087e-18 1.875814e+01 -2.581923e-17))
0.00188173    	((4.009146e+02 6.431967e-14 6.532908e+03) (1.910159e+01 6.821978e-19 1.127141e+00)) ((-2.310186e-13 -2.593426e+03 3.022363e-14) (1.859902e-18 1.886076e+01 -2.651253e-17))
0.00194153    	((2.941292e+02 8.256261e-14 8.294675e+03) (1.918257e+01 9.185224e-19 1.142662e+00)) ((-2.946104e-13 -3.874957e+03 3.695989e-14) (3.603937e-18 1.894841e+01 -2.621500e-17))
0.00199978    	((4.606744e+02 5.165074e-14 4.866428e+03) (1.925344e+01 6.828979e-19 1.140743e+00)) ((-1.970002e-13 -1.720274e+03 2.512482e-14) (4.359252e-18 1.902799e+01 -2.574433e-17))
0.00205938    	((3.382010e+02 4.302522e-14 5.930861e+03) (1.933703e+01 9.947305e-19 1.133050e+00)) ((-1.668169e-13 -2.648692e+03 1.695880e-14) (4.787173e-18 1.912236e+01 -2.612809e-17))
0.00211979    	((6.881535e+02 3.856053e-14 3.574475e+03) (1.941080e+01 9.489161e-19 1.150502e+00)) ((-2.173015e-13 -2.320715e+03 1.415271e-14) (5.080675e-18 1.920081e+01 -2.123911e-17))
0.00217919    	((3.370296e+02 5.476370e-14 5.617546e+03) (1.948655e+01 7.321428e-19 1.144018e+00)) ((-1.812061e-13 -2.271941e+03 2.801201e-14) (5.786382e-18 1.928420e+01 -1.887849e-17))
0.00223919    	((-4.935015e+02 7.924758e-14 1.703646e+04) (1.960802e+01 1.913345e-18 1.173256e+00)) ((-3.183131e-13 -1.092572e+04 1.383289e-14) (3.609843e-18 1.937672e+01 -1.149772e-17))
0.00229612    	((-5.785415e+02 1.405077e-13 2.245947e+04) (1.971408e+01 1.575493e-18 1.142009e+00)) ((-4.653888e-13 -1.441828e+04 4.917266e-14) (4.559660e-18 1.951642e+01 -9.485366e-18))
0.00233691    	((6.036111e+02 1.035501e-13 1.328289e+04) (1.978393e+01 9.584014e-19 1.162732e+00)) ((-3.490604e-13 -7.275144e+03 4.564417e-14) (3.329991e-18 1.958489e+01 -1.075955e-17))
0.00237742    	((2.802661e+02 4.966608e-14 6.233667e+03) (1.983698e+01 9.244412e-19 1.163733e+00)) ((-1.794532e-13 -2.853771e+03 2.253336e-14) (2.569410e-18 1.964332e+01 -1.177112e-17))
0.00241607    	((5.782734e+02 3.657507e-14 4.098720e+03) (1.988536e+01 8.246041e-19 1.161285e+00)) ((-1.620507e-13 -1.804778e+03 1.873498e-14) (1.962620e-18 1.969712e+01 -1.211859e-17))
0.00245541    	((4.383066e+02 4.468074e-14 4.805729e+03) (1.993365e+01 8.409016e-19 1.162421e+00)) ((-1.820670e-13 -2.116302e+03 2.004743e-14) (1.560846e-18 1.975039e+01 -1.268740e-17))
0.00249593    	((7.520607e+02 4.678587e-14 4.083272e+03) (1.999909e+01 7.663359e-19 1.145954e+00)) ((-2.190639e-13 -1.897672e+03 2.055356e-14) (5.648994e-19 1.982528e+01 -1.289470e-17))
0.00253626    	((7.172379e+02 3.448602e-14 2.210577e+03) (2.005407e+01 8.104709e-19 1.170618e+00)) ((-2.187030e-13 -1.214906e+03 1.497293e-14) (2.239128e-18 1.987906e+01 -1.301427e-17))
0.00257865    	((3.149675e+02 3.696017e-14 4.273382e+03) (2.010423e+01 7.789078e-19 1.171938e+00)) ((-1.522989e-13 -1.779628e+03 1.641875e-14) (2.513741e-18 1.993419e+01 -1.259896e-17))
0.00262209    	((3.036598e+02 3.625415e-14 4.253041e+03) (2.016514e+01 7.390937e-19 1.165354e+00)) ((-1.478404e-13 -1.751169e+03 1.608847e-14) (2.769393e-18 2.000240e+01 -1.099854e-17))
0.00266642    	((3.006838e+02 3.537590e-14 4.155575e+03) (2.022281e+01 7.177918e-19 1.156544e+00)) ((-1.458061e-13 -1.730930e+03 1.555381e-14) (2.934129e-18 2.006788e+01 -9.818396e-18))
0.0027086     	((2.777200e+02 3.446095e-14 4.070115e+03) (2.028856e+01 7.162445e-19 1.148014e+00)) ((-1.419914e-13 -1.697556e+03 1.510748e-14) (2.753299e-18 2.014192e+01 -1.056149e-17))
0.00275183    	((2.679237e+02 3.419285e-14 4.034789e+03) (2.036791e+01 7.951608e-19 1.132000e+00)) ((-1.404659e-13 -1.697179e+03 1.491572e-14) (2.590716e-18 2.023212e+01 -1.315819e-17))
0.00279594    	((9.164241e+02 4.733820e-14 1.932533e+03) (2.046126e+01 9.272354e-19 1.168960e+00)) ((-1.908387e-13 -8.589566e+02 1.951261e-14) (3.935981e-19 2.032304e+01 -2.403572e-17))
0.00284074    	((2.849169e+02 3.395308e-14 3.915942e+03) (2.054939e+01 9.183737e-19 1.176048e+00)) ((-1.395495e-13 -1.642425e+03 1.474438e-14) (-7.199163e-19 2.041717e+01 -3.145474e-17))
0.00288614    	((2.262315e+02 3.219433e-14 3.820758e+03) (2.063814e+01 9.404003e-19 1.176184e+00)) ((-1.328780e-13 -1.640121e+03 1.380084e-14) (-2.158073e-18 2.051352e+01 -3.806853e-17))
0.00293165    	((8.468604e+02 4.285002e-14 4.120401e+03) (2.074554e+01 9.689607e-19 1.172173e+00)) ((-1.906373e-13 -1.480398e+03 1.946504e-14) (-3.593567e-18 2.062987e+01 -4.414240e-17))
0.00297778    	((7.675509e+02 4.719220e-14 4.980185e+03) (2.086542e+01 1.016485e-18 1.167316e+00)) ((-2.014001e-13 -2.047047e+03 2.090194e-14) (-4.934561e-18 2.075930e+01 -4.971214e-17))
0.00302342    	((3.283666e+03 9.137639e-14 6.195718e+03) (2.103975e+01 1.071048e-18 1.154699e+00)) ((-4.324995e-13 -1.193009e+03 4.542404e-14) (-6.286180e-18 2.094476e+01 -5.515410e-17))
0.00306881    	((7.300514e+02 4.035768e-14 1.441371e+03) (2.120989e+01 1.030532e-18 1.188560e+00)) ((-2.791098e-13 -7.050954e+02 1.521581e-14) (-8.234428e-19 2.111493e+01 -6.326723e-17))
0.00311457    	((3.025473e+02 3.303833e-14 3.675081e+03) (2.136831e+01 1.070958e-18 1.193632e+00)) ((-1.414900e-13 -1.462541e+03 1.462842e-14) (2.557307e-19 2.127880e+01 -6.656867e-17))
0.00316096    	((3.837547e+02 3.280622e-14 3.495195e+03) (2.154486e+01 1.174790e-18 1.187836e+00)) ((-1.433336e-13 -1.325218e+03 1.471036e-14) (5.105056e-19 2.146239e+01 -6.994138e-17))
0.00320722    	((3.623726e+02 3.222107e-14 3.492394e+03) (2.173368e+01 1.256021e-18 1.173325e+00)) ((-1.401619e-13 -1.342226e+03 1.438216e-14) (3.955419e-19 2.165939e+01 -7.358884e-17))
0.00325466    	((2.755593e+02 2.886991e-14 3.221854e+03) (2.192368e+01 1.238126e-18 1.154582e+00)) ((-1.261907e-13 -1.242881e+03 1.274922e-14) (1.584103e-19 2.185762e+01 -7.627777e-17))
0.00330348    	((2.454791e+02 2.720224e-14 3.061039e+03) (2.211445e+01 1.167940e-18 1.135094e+00)) ((-1.199058e-13 -1.176140e+03 1.195117e-14) (-1.025947e-19 2.205573e+01 -7.857143e-17))
0.00335362    	((5.704431e+02 3.100189e-14 1.063906e+03) (2.233325e+01 6.469495e-19 1.150628e+00)) ((-2.042781e-13 -5.683629e+02 1.201161e-14) (9.388897e-19 2.227314e+01 -8.208180e-17))
0.00340452    	((2.695026e+02 2.671054e-14 2.744007e+03) (2.251308e+01 4.105887e-19 1.143076e+00)) ((-1.258699e-13 -1.080361e+03 1.149450e-14) (1.021781e-18 2.245730e+01 -8.314583e-17))
0.00345638    	((2.403429e+02 2.534217e-14 2.779403e+03) (2.269725e+01 2.576022e-19 1.121776e+00)) ((-1.156284e-13 -1.067549e+03 1.100513e-14) (3.271518e-19 2.265244e+01 -8.111689e-17))
0.00350958    	((2.151728e+02 2.480891e-14 2.776983e+03) (2.288450e+01 1.695003e-19 1.084873e+00)) ((-1.125502e-13 -1.082501e+03 1.071764e-14) (-1.277694e-18 2.286010e+01 -7.587590e-17))
0.00356295    	((2.143543e+02 2.436805e-14 2.730427e+03) (2.326313e+01 9.595084e-20 1.052422e+00)) ((-1.111231e-13 -1.061529e+03 1.050611e-14) (-3.311415e-18 2.324645e+01 -6.550519e-17))
0.00361529    	((1.966812e+02 2.389963e-14 2.710729e+03) (2.373167e+01 -7.802832e-20 1.031996e+00)) ((-1.086608e-13 -1.060026e+03 1.027355e-14) (-5.141471e-18 2.371054e+01 -5.244693e-17))
0.00366955    	((2.046368e+02 2.449304e-14 2.677877e+03) (2.425692e+01 -7.128151e-19 1.043693e+00)) ((-1.117053e-13 -1.063886e+03 1.038165e-14) (-5.078025e-18 2.421601e+01 -3.703452e-17))
0.00372472    	((4.677350e+02 4.328620e-14 9.860242e+02) (2.492697e+01 -1.400986e-18 1.056735e+00)) ((-2.132944e-13 -5.503466e+02 1.500326e-14) (-5.674645e-18 2.487041e+01 -1.054331e-17))
0.00377861    	((1.995306e+02 2.225873e-14 2.492757e+03) (2.564150e+01 -1.730786e-18 1.050167e+00)) ((-1.031780e-13 -9.270670e+02 9.627739e-15) (-8.590976e-18 2.557336e+01 7.669216e-18))
0.0038336     	((1.773992e+02 2.176186e-14 2.482187e+03) (2.635694e+01 -2.307231e-18 1.037554e+00)) ((-1.006858e-13 -9.370619e+02 9.351114e-15) (-1.192146e-17 2.628458e+01 2.475137e-17))
0.00389032    	((1.825715e+02 2.150181e-14 2.426087e+03) (2.700894e+01 -2.906929e-18 1.016163e+00)) ((-1.003632e-13 -9.111263e+02 9.240342e-15) (-1.555509e-17 2.694354e+01 4.033414e-17))
0.00394786    	((1.732685e+02 2.101045e-14 2.334982e+03) (2.758008e+01 -3.270203e-18 9.842829e-01)) ((-9.855292e-14 -8.670762e+02 8.968020e-15) (-1.947601e-17 2.753338e+01 5.460045e-17))
0.00400644    	((2.163553e+02 2.251846e-14 2.106197e+03) (2.808100e+01 -3.585001e-18 9.451111e-01)) ((-1.095871e-13 -7.874624e+02 9.291700e-15) (-2.375174e-17 2.806294e+01 6.810775e-17))
0.00406612    	((1.793432e+02 2.065394e-14 2.253488e+03) (2.850944e+01 -3.926306e-18 9.076812e-01)) ((-9.863295e-14 -8.375251e+02 8.760615e-15) (-2.878975e-17 2.852548e+01 7.968489e-17))
0.00412513    	((4.106757e+02 2.980393e-14 5.412457e+02) (2.896070e+01 -4.256896e-18 8.906636e-01)) ((-1.193343e-13 -2.913521e+02 1.096005e-14) (-3.664686e-17 2.901355e+01 9.436660e-17))
0.00418286    	((1.851176e+02 2.085226e-14 2.146858e+03) (2.927671e+01 -3.959089e-18 8.334429e-01)) ((-9.830105e-14 -8.112634e+02 8.730435e-15) (-4.336347e-17 2.937738e+01 1.020615e-16))
0.00424255    	((1.565218e+02 1.978237e-14 2.202267e+03) (2.954873e+01 -3.322421e-18 7.525685e-01)) ((-9.445369e-14 -8.308810e+02 8.320520e-15) (-5.007234e-17 2.970429e+01 1.086159e-16))
0.00430434    	((1.585845e+02 1.960459e-14 2.175381e+03) (2.978890e+01 -2.572040e-18 6.592826e-01)) ((-9.458565e-14 -8.252155e+02 8.200739e-15) (-5.579006e-17 2.999950e+01 1.132630e-16))
0.00436541    	((1.620125e+02 1.964305e-14 2.170405e+03) (3.005540e+01 -1.768871e-18 5.588966e-01)) ((-9.511379e-14 -8.263765e+02 8.204232e-15) (-6.094461e-17 3.032053e+01 1.148425e-16))
0.00442721    	((1.483537e+02 1.916650e-14 2.153009e+03) (3.034519e+01 -1.071643e-18 4.141876e-01)) ((-9.308536e-14 -8.199583e+02 8.003051e-15) (-6.597537e-17 3.067747e+01 1.157713e-16))
0.00449051    	((1.458140e+02 1.888186e-14 2.124606e+03) (3.068987e+01 -9.453588e-19 2.455496e-01)) ((-9.239504e-14 -8.115257e+02 7.841507e-15) (-6.978328e-17 3.109610e+01 1.138552e-16))
0.00455382    	((1.451457e+02 1.870679e-14 2.099258e+03) (3.106397e+01 -7.008670e-19 3.421782e-02)) ((-9.198687e-14 -8.010282e+02 7.752437e-15) (-7.408559e-17 3.155784e+01 1.106801e-16))
0.0046161     	((1.405796e+02 1.863314e-14 2.116043e+03) (3.148092e+01 -5.913329e-19 -2.437059e-01)) ((-9.159131e-14 -8.152111e+02 7.686821e-15) (-7.747040e-17 3.208760e+01 1.074757e-16))
0.00468074    	((1.394068e+02 1.846227e-14 2.099019e+03) (3.199931e+01 -7.579484e-19 -6.077798e-01)) ((-9.102719e-14 -8.073544e+02 7.622794e-15) (-7.939007e-17 3.275633e+01 1.042715e-16))
0.00474822    	((1.410483e+02 1.823246e-14 2.057841e+03) (3.257175e+01 -1.098031e-18 -1.061538e+00)) ((-9.065438e-14 -7.898066e+02 7.523007e-15) (-8.175495e-17 3.351832e+01 9.912757e-17))
0.00481231    	((2.746672e+02 1.427606e-14 1.298952e+02) (3.330759e+01 -1.694399e-18 -1.582709e+00)) ((-9.510267e-14 -2.324093e+02 5.658435e-15) (-8.613955e-17 3.448524e+01 8.740707e-17))
0.00487892    	((1.459824e+02 1.804397e-14 2.048886e+03) (3.406705e+01 -1.489872e-18 -2.260317e+00)) ((-9.039664e-14 -7.820356e+02 7.475196e-15) (-9.239486e-17 3.554177e+01 7.912064e-17))
0.00494828    	((1.506470e+02 1.804669e-14 2.026748e+03) (3.491657e+01 -7.718131e-19 -3.103460e+00)) ((-9.094788e-14 -7.818366e+02 7.395874e-15) (-1.008324e-16 3.676435e+01 7.173441e-17))
0.00501518    	((2.022373e+02 1.874827e-14 1.932766e+03) (3.577595e+01 -1.932820e-20 -4.033926e+00)) ((-9.454401e-14 -7.249546e+02 7.660549e-15) (-1.094818e-16 3.803892e+01 6.498087e-17))
0.00508455    	((1.302927e+02 1.737069e-14 1.956227e+03) (3.666685e+01 1.704648e-18 -5.092380e+00)) ((-8.776768e-14 -7.483468e+02 7.098791e-15) (-1.191884e-16 3.940439e+01 5.725617e-17))
0.00515114    	((1.317633e+02 1.751343e-14 1.995215e+03) (3.751771e+01 4.352609e-18 -6.187513e+00)) ((-8.833854e-14 -7.683095e+02 7.154927e-15) (-1.288555e-16 4.074789e+01 5.167657e-17))
0.00522151    	((1.326225e+02 1.735664e-14 1.956647e+03) (3.841432e+01 5.441167e-18 -7.382996e+00)) ((-8.797528e-14 -7.493489e+02 7.093152e-15) (-1.362242e-16 4.218540e+01 4.638711e-17))
0.00529615    	((1.330653e+02 1.728592e-14 1.937766e+03) (3.934844e+01 7.053069e-18 -8.666832e+00)) ((-8.787926e-14 -7.413809e+02 7.057187e-15) (-1.433944e-16 4.370457e+01 4.238383e-17))
0.00536684    	((1.328998e+02 1.714053e-14 1.940461e+03) (4.014680e+01 7.346090e-18 -9.889147e+00)) ((-8.713032e-14 -7.400547e+02 7.017016e-15) (-1.480497e-16 4.505925e+01 3.843644e-17))
0.00543587    	((1.326079e+02 1.702995e-14 1.916838e+03) (4.082185e+01 7.050037e-18 -1.105940e+01)) ((-8.705215e-14 -7.304704e+02 6.935438e-15) (-1.507067e-16 4.626550e+01 3.566911e-17))
0.00550869    	((1.326884e+02 1.674623e-14 1.873034e+03) (4.140465e+01 5.671515e-18 -1.223347e+01)) ((-8.604652e-14 -7.065057e+02 6.840603e-15) (-1.510389e-16 4.738008e+01 3.395988e-17))
0.00558339    	((1.313657e+02 1.657663e-14 1.858747e+03) (4.187452e+01 3.590512e-18 -1.336526e+01)) ((-8.545969e-14 -6.990771e+02 6.751272e-15) (-1.493546e-16 4.836200e+01 3.318782e-17))
0.00565694    	((1.351641e+02 1.694057e-14 1.839519e+03) (4.223604e+01 1.736330e-18 -1.441037e+01)) ((-8.711658e-14 -7.010746e+02 6.879653e-15) (-1.469649e-16 4.919698e+01 3.301828e-17))
0.00573364    	((1.859562e+02 2.366033e-14 5.494697e+02) (4.254818e+01 8.583662e-19 -1.538332e+01)) ((-1.157257e-13 -3.083823e+02 8.788509e-15) (-1.441866e-16 4.995647e+01 3.741937e-17))
0.00580953    	((1.320274e+02 1.639834e-14 1.846076e+03) (4.270957e+01 -8.153794e-19 -1.628938e+01)) ((-8.473993e-14 -6.887422e+02 6.677410e-15) (-1.414819e-16 5.053006e+01 3.696301e-17))
0.00588461    	((1.316041e+02 1.626183e-14 1.829364e+03) (4.279120e+01 -2.436754e-18 -1.711532e+01)) ((-8.432497e-14 -6.832377e+02 6.623025e-15) (-1.393155e-16 5.098828e+01 3.509214e-17))
0.00595929    	((1.323989e+02 1.631006e-14 1.826322e+03) (4.281339e+01 -3.444161e-18 -1.786912e+01)) ((-8.493330e-14 -6.863237e+02 6.621377e-15) (-1.384289e-16 5.135553e+01 3.074935e-17))
0.00603398    	((1.310537e+02 1.616997e-14 1.795933e+03) (4.277820e+01 -4.000714e-18 -1.855985e+01)) ((-8.434478e-14 -6.668543e+02 6.560076e-15) (-1.389239e-16 5.163725e+01 2.522431e-17))
0.00610906    	((1.295907e+02 1.602413e-14 1.790823e+03) (4.269353e+01 -4.692199e-18 -1.919370e+01)) ((-8.366788e-14 -6.642534e+02 6.503347e-15) (-1.406588e-16 5.184415e+01 1.822385e-17))
0.00617994    	((1.321440e+02 1.648688e-14 1.731088e+03) (4.257784e+01 -5.400909e-18 -1.974574e+01)) ((-8.522737e-14 -6.452370e+02 6.632896e-15) (-1.439492e-16 5.198303e+01 1.060826e-17))
0.00625154    	((1.297276e+02 1.628786e-14 1.776529e+03) (4.242570e+01 -6.356592e-18 -2.025198e+01)) ((-8.482064e-14 -6.685159e+02 6.558422e-15) (-1.492227e-16 5.206410e+01 2.041968e-18))
0.0063239     	((1.278632e+02 1.601210e-14 1.771946e+03) (4.224491e+01 -7.644865e-18 -2.070873e+01)) ((-8.355606e-14 -6.596147e+02 6.478274e-15) (-1.570122e-16 5.209279e+01 -6.566324e-18))
0.00639704    	((1.310973e+02 1.586125e-14 1.686241e+03) (4.204498e+01 -9.013936e-18 -2.110414e+01)) ((-8.357587e-14 -6.287221e+02 6.398491e-15) (-1.686921e-16 5.207246e+01 -1.406608e-17))
0.00647097    	((1.306905e+02 1.576111e-14 1.695455e+03) (4.183581e+01 -1.048279e-17 -2.143434e+01)) ((-8.328850e-14 -6.303687e+02 6.348551e-15) (-1.840525e-16 5.201036e+01 -1.872973e-17))
0.00654571    	((1.288489e+02 1.589223e-14 1.748170e+03) (4.164123e+01 -1.165848e-17 -2.169751e+01)) ((-8.359580e-14 -6.551364e+02 6.404150e-15) (-2.028900e-16 5.192944e+01 -2.009634e-17))
0.0066213     	((1.284724e+02 1.564907e-14 1.720333e+03) (4.145175e+01 -1.238802e-17 -2.189347e+01)) ((-8.268126e-14 -6.373179e+02 6.310462e-15) (-2.237097e-16 5.181854e+01 -1.848313e-17))
0.00669731    	((1.284868e+02 1.557274e-14 1.686616e+03) (4.127434e+01 -1.446339e-17 -2.205298e+01)) ((-8.205291e-14 -6.190090e+02 6.268981e-15) (-2.389383e-16 5.169839e+01 -1.468319e-17))
0.00677421    	((1.672877e+02 3.030795e-14 6.062712e+02) (4.118100e+01 -1.665091e-17 -2.210276e+01)) ((-9.225995e-14 -2.923838e+02 1.069463e-14) (-2.487812e-16 5.162262e+01 -1.268667e-17))
0.00685155    	((1.319688e+02 1.612044e-14 1.643690e+03) (4.099961e+01 -1.920489e-17 -2.214979e+01)) ((-8.244489e-14 -6.055104e+02 6.441913e-15) (-2.480308e-16 5.144878e+01 -7.794608e-18))
0.00691729    	((1.283153e+02 1.622127e-14 1.713654e+03) (4.083883e+01 -2.217151e-17 -2.216607e+01)) ((-8.349610e-14 -6.485103e+02 6.471624e-15) (-2.376538e-16 5.128158e+01 -4.773449e-18))
0.00698337    	((1.291660e+02 1.581265e-14 1.673838e+03) (4.066954e+01 -2.237942e-17 -2.215565e+01)) ((-8.223121e-14 -6.167175e+02 6.351561e-15) (-2.213299e-16 5.109199e+01 -2.433733e-18))
0.00704391    	((1.284508e+02 1.568257e-14 1.666515e+03) (4.053571e+01 -2.225699e-17 -2.207190e+01)) ((-8.177857e-14 -6.097823e+02 6.307192e-15) (-2.081474e-16 5.090028e+01 1.605047e-18))
0.00710474    	((1.280117e+02 1.554294e-14 1.659508e+03) (4.042233e+01 -2.184931e-17 -2.194871e+01)) ((-8.149887e-14 -6.058830e+02 6.245736e-15) (-1.947858e-16 5.071068e+01 7.555894e-18))
0.00716614    	((1.275819e+02 1.537933e-14 1.649547e+03) (4.031882e+01 -2.216617e-17 -2.182909e+01)) ((-8.106759e-14 -5.986830e+02 6.184918e-15) (-1.776233e-16 5.053767e+01 1.290374e-17))
0.00722784    	((1.277504e+02 1.542791e-14 1.649770e+03) (4.022184e+01 -2.459933e-17 -2.171925e+01)) ((-8.141343e-14 -6.027117e+02 6.192976e-15) (-1.575211e-16 5.038196e+01 1.499149e-17))
0.00729015    	((1.241845e+02 1.571693e-14 1.704939e+03) (4.011230e+01 -2.744063e-17 -2.161879e+01)) ((-8.242525e-14 -6.434136e+02 6.267789e-15) (-1.376904e-16 5.022349e+01 1.195534e-17))
0.00735307    	((1.285859e+02 1.549100e-14 1.640700e+03) (3.997977e+01 -3.072484e-17 -2.152938e+01)) ((-8.185223e-14 -6.020879e+02 6.214516e-15) (-1.199659e-16 5.005102e+01 2.288100e-18))
0.00741694    	((1.265075e+02 1.524725e-14 1.631112e+03) (3.982552e+01 -3.440755e-17 -2.145272e+01)) ((-8.091971e-14 -5.931443e+02 6.116681e-15) (-1.063761e-16 4.986596e+01 -1.500153e-17))
0.00748248    	((1.272490e+02 1.537781e-14 1.635344e+03) (3.966428e+01 -3.832901e-17 -2.140119e+01)) ((-8.144301e-14 -5.986901e+02 6.171766e-15) (-1.006606e-16 4.968947e+01 -4.076459e-17))
0.00755014    	((1.261629e+02 1.505159e-14 1.618562e+03) (3.948851e+01 -4.142458e-17 -2.138886e+01)) ((-8.039404e-14 -5.862478e+02 6.036916e-15) (-1.030318e-16 4.951679e+01 -7.367056e-17))
0.00762008    	((1.258410e+02 1.498267e-14 1.619776e+03) (3.930495e+01 -4.336192e-17 -2.140079e+01)) ((-8.033206e-14 -5.891618e+02 5.995734e-15) (-1.138582e-16 4.934861e+01 -1.115250e-16))
0.00769123    	((1.224015e+02 1.505744e-14 1.658207e+03) (3.911621e+01 -4.502874e-17 -2.142397e+01)) ((-8.069438e-14 -6.184691e+02 5.974779e-15) (-1.308845e-16 4.918157e+01 -1.499495e-16))
0.00776914    	((1.250075e+02 1.510477e-14 1.639232e+03) (3.890986e+01 -4.657065e-17 -2.146075e+01)) ((-8.100211e-14 -6.089043e+02 6.011787e-15) (-1.545054e-16 4.900593e+01 -1.873434e-16))
0.00785122    	((1.245272e+02 1.477339e-14 1.615221e+03) (3.869858e+01 -5.179224e-17 -2.150901e+01)) ((-7.990009e-14 -5.909052e+02 5.885402e-15) (-1.788562e-16 4.883326e+01 -2.207222e-16))
0.00793618    	((1.231538e+02 1.458324e-14 1.607999e+03) (3.849566e+01 -5.687336e-17 -2.156556e+01)) ((-7.933660e-14 -5.875954e+02 5.786109e-15) (-2.061947e-16 4.867464e+01 -2.451779e-16))
0.00802297    	((1.195070e+02 1.470289e-14 1.648961e+03) (3.830232e+01 -6.026647e-17 -2.162862e+01)) ((-7.993823e-14 -6.216290e+02 5.759989e-15) (-2.363176e-16 4.853000e+01 -2.596433e-16))
0.00811103    	((1.213059e+02 1.495074e-14 1.655711e+03) (3.820352e+01 -6.140823e-17 -2.164992e+01)) ((-8.079619e-14 -6.281544e+02 5.879356e-15) (-2.745693e-16 4.845990e+01 -2.513604e-16))
0.00819845    	((1.189352e+02 1.479201e-14 1.657780e+03) (3.812512e+01 -6.060098e-17 -2.166615e+01)) ((-8.016024e-14 -6.290371e+02 5.804125e-15) (-3.140547e-16 4.840736e+01 -2.310615e-16))
0.00828587    	((1.217655e+02 1.452974e-14 1.605560e+03) (3.802484e+01 -5.901776e-17 -2.169309e+01)) ((-7.929575e-14 -5.925856e+02 5.733668e-15) (-3.514735e-16 4.833742e+01 -2.054138e-16))
0.00837329    	((1.221743e+02 1.489320e-14 1.593032e+03) (3.791089e+01 -5.729775e-17 -2.171881e+01)) ((-8.028866e-14 -5.929261e+02 5.868172e-15) (-3.866184e-16 4.825279e+01 -1.752167e-16))
0.00843172    	((1.457760e+02 2.762627e-14 6.161557e+02) (3.789600e+01 -5.564503e-17 -2.169521e+01)) ((-1.040766e-13 -2.998033e+02 1.012983e-14) (-4.049077e-16 4.823813e+01 -1.526701e-16))
0.00849074    	((1.227538e+02 1.511059e-14 1.595526e+03) (3.783236e+01 -5.441732e-17 -2.166886e+01)) ((-8.055595e-14 -5.942943e+02 5.959328e-15) (-4.207176e-16 4.817230e+01 -1.336493e-16))
0.00855007    	((1.212712e+02 1.507028e-14 1.623931e+03) (3.776959e+01 -5.336753e-17 -2.162613e+01)) ((-8.091516e-14 -6.167156e+02 5.893306e-15) (-4.331746e-16 4.809971e+01 -1.176770e-16))
0.0086097     	((1.197097e+02 1.509152e-14 1.644356e+03) (3.769264e+01 -5.249285e-17 -2.157497e+01)) ((-8.098988e-14 -6.299137e+02 5.907800e-15) (-4.444843e-16 4.800953e+01 -1.023201e-16))
0.00866965    	((1.208199e+02 1.480051e-14 1.613268e+03) (3.760127e+01 -5.174376e-17 -2.151307e+01)) ((-8.006564e-14 -6.064897e+02 5.816962e-15) (-4.544368e-16 4.790009e+01 -8.776083e-17))
0.00873024    	((1.228475e+02 1.489108e-14 1.606572e+03) (3.750225e+01 -5.095455e-17 -2.144350e+01)) ((-8.040985e-14 -6.025530e+02 5.880285e-15) (-4.630287e-16 4.777935e+01 -7.402589e-17))
0.00879149    	((1.225312e+02 1.456462e-14 1.585504e+03) (3.739531e+01 -5.017729e-17 -2.137446e+01)) ((-7.941926e-14 -5.878824e+02 5.750524e-15) (-4.699916e-16 4.765064e+01 -6.125264e-17))
0.00885341    	((1.217831e+02 1.462306e-14 1.593141e+03) (3.733420e+01 -4.936466e-17 -2.132101e+01)) ((-7.965132e-14 -5.955553e+02 5.755584e-15) (-4.750313e-16 4.757874e+01 -5.125384e-17))
0.00891675    	((1.212910e+02 1.437129e-14 1.572322e+03) (3.732247e+01 -4.851894e-17 -2.133823e+01)) ((-7.875951e-14 -5.793008e+02 5.658886e-15) (-4.790896e-16 4.759486e+01 -4.454751e-17))
0.00898156    	((1.184897e+02 1.449528e-14 1.608478e+03) (3.731466e+01 -4.771173e-17 -2.141936e+01)) ((-7.923100e-14 -6.054721e+02 5.670659e-15) (-4.820372e-16 4.764703e+01 -4.106018e-17))
0.00904794    	((1.162403e+02 1.487501e-14 1.655555e+03) (3.731235e+01 -4.723096e-17 -2.152324e+01)) ((-8.046842e-14 -6.416511e+02 5.789803e-15) (-4.826937e-16 4.771535e+01 -3.626791e-17))
0.00911596    	((1.202516e+02 1.444203e-14 1.583410e+03) (3.730362e+01 -4.677537e-17 -2.163538e+01)) ((-7.906429e-14 -5.892319e+02 5.665649e-15) (-4.822076e-16 4.778069e+01 -3.061517e-17))
0.00918664    	((1.193994e+02 1.436331e-14 1.584945e+03) (3.729269e+01 -4.615824e-17 -2.175240e+01)) ((-7.880946e-14 -5.897001e+02 5.629944e-15) (-4.819687e-16 4.784668e+01 -2.487911e-17))
0.0092597     	((1.181730e+02 1.450844e-14 1.602334e+03) (3.728746e+01 -4.518326e-17 -2.187937e+01)) ((-7.928207e-14 -6.046493e+02 5.668273e-15) (-4.836113e-16 4.792478e+01 -1.766004e-17))
0.00933587    	((1.184616e+02 1.451236e-14 1.598634e+03) (3.730209e+01 -4.421937e-17 -2.221523e+01)) ((-7.931278e-14 -6.030106e+02 5.674484e-15) (-4.857693e-16 4.814585e+01 1.640449e-17))
0.00941546    	((1.172831e+02 1.477848e-14 1.628856e+03) (3.722056e+01 -3.699158e-17 -2.368504e+01)) ((-8.024025e-14 -6.269241e+02 5.763976e-15) (-5.756103e-16 4.893324e+01 1.293890e-16))
0.00949815    	((1.078233e+02 1.510824e-14 1.735476e+03) (3.682714e+01 -3.241801e-17 -2.563816e+01)) ((-8.136510e-14 -7.038811e+02 5.791645e-15) (-5.578051e-16 4.969589e+01 1.376948e-16))
0.00957652    	((1.108516e+02 1.507908e-14 1.703271e+03) (3.615472e+01 -2.822705e-17 -2.751759e+01)) ((-8.109214e-14 -6.798338e+02 5.826753e-15) (-3.275238e-16 5.014471e+01 3.970807e-17))