# Forces      
# CofR        : (0.000000e+00 0.000000e+00 -1.000000e+00)
# Time        forces(pressure viscous)	moments(pressure viscous)
0             	((1.136868e-13 6.764460e-14 1.136868e-13) (1.289755e+01 -8.305985e-18 2.371936e+00)) ((-2.248934e-14 0.000000e+00 2.716866e-14) (-8.993152e-18 1.173580e+01 8.949541e-17))
1.19976e-05   	((1.753513e+05 5.911013e-13 1.739608e+06) (1.307280e+01 -8.317066e-18 2.060947e+00)) ((-9.521374e-12 -4.866831e+05 -6.047617e-12) (-1.059692e-17 1.201691e+01 9.495483e-17))
2.63878e-05   	((2.048052e+04 -1.722094e-13 2.885114e+05) (1.312317e+01 -8.087331e-18 1.953102e+00)) ((-1.083219e-12 -9.881996e+04 -1.038454e-12) (-1.105600e-17 1.210278e+01 9.606770e-17))
4.36511e-05   	((1.230147e+04 -6.887838e-14 1.694147e+05) (1.319988e+01 -7.773903e-18 1.888473e+00)) ((-7.175928e-13 -5.763791e+04 -5.930426e-13) (-1.092746e-17 1.220215e+01 9.758996e-17))
6.43527e-05   	((8.049609e+03 -3.347020e-14 1.132799e+05) (1.331127e+01 -7.396001e-18 1.840351e+00)) ((-5.150422e-13 -3.888548e+04 -3.871638e-13) (-1.085850e-17 1.233232e+01 9.888821e-17))
8.91792e-05   	((6.388667e+03 -3.349747e-14 8.064185e+04) (1.346865e+01 -6.939135e-18 1.804285e+00)) ((-3.148801e-13 -2.765625e+04 -2.756805e-13) (-1.123909e-17 1.250617e+01 1.004946e-16))
0.000118941   	((4.601027e+03 1.570859e-16 5.836530e+04) (1.370307e+01 -6.356440e-18 1.765460e+00)) ((-2.716517e-13 -1.970478e+04 -1.936682e-13) (-1.122474e-17 1.275469e+01 1.025063e-16))
0.000154634   	((3.466224e+03 1.166221e-14 4.328979e+04) (1.409104e+01 -5.758183e-18 1.735114e+00)) ((-2.123409e-13 -1.444977e+04 -1.392774e-13) (-1.126009e-17 1.314922e+01 1.056416e-16))
0.000197405   	((2.887291e+03 1.366739e-14 3.376911e+04) (1.464958e+01 -5.106835e-18 1.734562e+00)) ((-1.563714e-13 -1.123471e+04 -1.084689e-13) (-1.198965e-17 1.368620e+01 1.109385e-16))
0.000248707   	((2.077518e+03 -5.419949e-15 2.804393e+04) (1.541607e+01 -4.250266e-18 1.741404e+00)) ((-7.142905e-14 -1.086975e+04 -9.235463e-14) (-1.328938e-17 1.443394e+01 1.181540e-16))
0.000310237   	((1.199206e+03 -3.427816e-14 3.054381e+04) (1.645697e+01 -3.344725e-18 1.711225e+00)) ((-3.257168e-14 -1.452697e+04 -1.113358e-13) (-1.272576e-17 1.548615e+01 1.290499e-16))
0.000383982   	((1.798079e+03 3.158536e-14 1.591606e+04) (1.796015e+01 -2.367067e-18 1.739671e+00)) ((-9.291643e-14 -4.539198e+03 -4.375671e-14) (-1.320034e-17 1.695350e+01 1.404677e-16))
0.000472342   	((1.568088e+03 2.886978e-14 1.301860e+04) (1.968032e+01 -1.951399e-18 1.816856e+00)) ((-5.867923e-14 -3.715247e+03 -3.370892e-14) (-1.401321e-17 1.863114e+01 1.511332e-16))
0.000577897   	((1.269668e+03 2.972436e-14 1.106984e+04) (2.149286e+01 -1.914294e-18 1.885796e+00)) ((-6.079934e-14 -3.182812e+03 -2.762900e-14) (-1.327647e-17 2.040387e+01 1.606292e-16))
0.000704014   	((1.315606e+03 3.140301e-14 1.031091e+04) (2.334319e+01 -2.332157e-18 1.989033e+00)) ((-4.612989e-14 -2.938916e+03 -2.557275e-14) (-1.259830e-17 2.220710e+01 1.681372e-16))
0.000844861   	((9.133280e+02 2.249687e-14 9.821807e+03) (2.504417e+01 -2.365265e-18 2.080377e+00)) ((-3.005311e-14 -3.517990e+03 -2.537610e-14) (-1.230242e-17 2.387714e+01 1.757396e-16))
0.00100059    	((7.992543e+02 2.208236e-14 8.676223e+03) (2.657196e+01 -2.221658e-18 2.153975e+00)) ((-2.815453e-14 -3.045689e+03 -2.186422e-14) (-1.174344e-17 2.538238e+01 1.832740e-16))
0.00116726    	((9.042951e+02 3.169079e-14 7.192708e+03) (2.785079e+01 -2.203175e-18 2.235159e+00)) ((-2.638054e-14 -2.252942e+03 -1.484718e-14) (-1.187615e-17 2.664842e+01 1.910387e-16))
0.00131792    	((8.735342e+02 2.609707e-14 7.368344e+03) (2.877640e+01 -2.091849e-18 2.272591e+00)) ((-2.523084e-14 -2.355757e+03 -1.680486e-14) (-1.128444e-17 2.757710e+01 1.949929e-16))
0.00146619    	((8.196728e+02 2.934351e-14 6.679081e+03) (2.948258e+01 -1.742182e-18 2.295504e+00)) ((-1.638331e-14 -2.211478e+03 -1.364119e-14) (-1.124751e-17 2.829488e+01 2.003735e-16))
0.00160554    	((9.280723e+02 2.884264e-14 6.544773e+03) (2.999178e+01 -1.505240e-18 2.305770e+00)) ((-1.371603e-14 -2.072634e+03 -1.385533e-14) (-1.140651e-17 2.881950e+01 2.039475e-16))
0.00174704    	((9.632264e+02 2.666121e-14 6.796574e+03) (3.039048e+01 -1.293203e-18 2.299745e+00)) ((-1.526843e-14 -2.131063e+03 -1.566353e-14) (-1.154070e-17 2.923962e+01 2.072582e-16))
0.00188428    	((1.268655e+03 2.811648e-14 7.240531e+03) (3.071862e+01 -8.377470e-19 2.265094e+00)) ((-5.239106e-15 -2.187260e+03 -1.852963e-14) (-1.125426e-17 2.959619e+01 2.105433e-16))
0.00201847    	((6.554105e+03 7.017642e-14 1.472509e+04) (3.134145e+01 -6.980860e-19 2.234831e+00)) ((1.180282e-13 -2.151221e+03 -6.019599e-14) (-1.612834e-17 3.024519e+01 2.058232e-16))
0.002146      	((4.812783e+02 2.055424e-14 7.579833e+03) (3.156907e+01 -3.989882e-19 2.187162e+00)) ((-1.795057e-14 -3.038340e+03 -1.806623e-14) (-1.936524e-17 3.050737e+01 2.040693e-16))
0.00227352    	((5.079731e+02 3.516885e-14 6.506691e+03) (3.175397e+01 -1.501913e-19 2.141259e+00)) ((-3.661364e-14 -2.737614e+03 -1.369154e-14) (-2.030904e-17 3.072763e+01 2.028735e-16))
0.00239578    	((5.526156e+02 3.558063e-14 7.028105e+03) (3.186746e+01 -4.277877e-19 2.149872e+00)) ((-3.402917e-14 -3.183698e+03 -1.711401e-14) (-1.426180e-17 3.086263e+01 2.051243e-16))
0.00251314    	((7.020407e+02 1.597226e-14 8.466714e+03) (3.194460e+01 -4.574867e-19 2.114843e+00)) ((2.380607e-15 -3.703848e+03 -2.535850e-14) (-1.205139e-17 3.096804e+01 2.067331e-16))
0.00262523    	((2.647454e+02 -1.641674e-14 1.329094e+04) (3.197333e+01 -6.213628e-19 2.114013e+00)) ((4.793505e-14 -7.399918e+03 -5.237678e-14) (-1.229624e-17 3.101533e+01 2.067492e-16))
0.00272452    	((5.942861e+02 -1.777618e-14 1.468669e+04) (3.198309e+01 -8.263921e-19 2.119382e+00)) ((7.293469e-14 -8.268007e+03 -6.141749e-14) (-1.323785e-17 3.103878e+01 2.060224e-16))
0.00284366    	((3.639480e+02 1.637216e-14 6.781498e+03) (3.177806e+01 1.058580e-20 2.140609e+00)) ((2.705297e-15 -3.243839e+03 -1.776554e-14) (-7.474546e-18 3.079385e+01 2.137188e-16))
0.00298428    	((3.339098e+02 2.578707e-14 4.498146e+03) (3.160691e+01 3.319333e-21 2.089187e+00)) ((-1.283355e-14 -1.764441e+03 -6.397048e-15) (-7.833966e-18 3.065124e+01 2.146283e-16))
0.00314948    	((5.349058e+02 3.087563e-14 3.094423e+03) (3.148174e+01 -3.658377e-19 2.098451e+00)) ((-1.237721e-14 -1.226298e+03 -4.418866e-15) (-5.311289e-18 3.054564e+01 2.060011e-16))
0.00334097    	((2.640401e+02 2.720011e-14 3.536737e+03) (3.125490e+01 -5.877402e-19 2.036854e+00)) ((-1.463562e-14 -1.277373e+03 -2.338039e-15) (-5.638845e-18 3.035815e+01 2.050612e-16))
0.00356309    	((2.297813e+02 2.722330e-14 3.270961e+03) (3.094839e+01 -6.341460e-19 1.966030e+00)) ((-1.398498e-14 -1.190645e+03 -1.382271e-15) (-5.985567e-18 3.009526e+01 2.078523e-16))
0.00381596    	((2.086126e+02 2.816558e-14 3.121046e+03) (3.051473e+01 1.365686e-19 1.963247e+00)) ((-1.749201e-14 -1.189720e+03 -1.148046e-15) (-4.637670e-18 2.968176e+01 2.163315e-16))
0.00409989    	((1.729889e+02 2.411543e-14 3.689461e+03) (2.992320e+01 5.219898e-19 1.925457e+00)) ((-1.016285e-14 -1.645186e+03 -4.564424e-15) (-2.221528e-18 2.911046e+01 2.412004e-16))
0.0044179     	((2.817093e+02 3.093955e-14 2.292851e+03) (2.937287e+01 6.916088e-19 1.864848e+00)) ((-1.290185e-14 -8.675997e+02 9.458140e-16) (-1.681267e-18 2.859854e+01 2.535363e-16))
0.00477203    	((1.585272e+02 2.713646e-14 2.438678e+03) (2.884252e+01 2.108204e-19 1.760519e+00)) ((-1.084061e-14 -8.996914e+02 1.182649e-15) (-5.923406e-18 2.814663e+01 2.669321e-16))
0.00503014    	((1.587373e+02 2.700767e-14 2.575750e+03) (2.916296e+01 1.523664e-18 1.754565e+00)) ((-1.108413e-14 -9.487463e+02 9.584863e-16) (-4.478965e-18 2.846106e+01 2.034467e-16))
0.00530736    	((1.633235e+02 2.879712e-14 2.340878e+03) (2.871798e+01 1.775287e-18 1.721002e+00)) ((-1.309565e-14 -8.460304e+02 1.950723e-15) (-4.756728e-18 2.804613e+01 2.061143e-16))
0.00561997    	((1.656829e+02 2.665990e-14 2.095006e+03) (2.836988e+01 1.804090e-18 1.631769e+00)) ((-3.702971e-15 -7.611066e+02 1.785892e-15) (-5.741794e-18 2.773039e+01 2.031329e-16))
0.00587675    	((1.717489e+02 2.913929e-14 2.067801e+03) (2.808148e+01 1.770070e-18 1.601021e+00)) ((-8.946768e-15 -7.442961e+02 2.505742e-15) (-6.006473e-18 2.746239e+01 2.002542e-16))
0.00611214    	((2.084432e+02 3.148806e-14 1.617052e+03) (2.772570e+01 1.983835e-18 1.596609e+00)) ((-1.186943e-14 -6.254342e+02 3.071397e-15) (-4.709683e-18 2.710966e+01 2.024078e-16))
0.00631637    	((1.450658e+02 2.668166e-14 2.369166e+03) (2.795262e+01 2.845683e-18 1.585975e+00)) ((-9.327011e-15 -8.908212e+02 1.479347e-15) (-6.022074e-18 2.735479e+01 1.515175e-16))
0.00654443    	((1.464073e+02 2.700910e-14 2.229248e+03) (2.764064e+01 2.711775e-18 1.579274e+00)) ((-9.283634e-15 -8.175834e+02 2.019963e-15) (-5.292394e-18 2.705752e+01 1.561081e-16))
0.00679831    	((1.488330e+02 2.398062e-14 1.984767e+03) (2.742914e+01 2.663214e-18 1.558310e+00)) ((-3.115965e-15 -7.396548e+02 1.365397e-15) (-3.891693e-18 2.687621e+01 1.580663e-16))
0.00700459    	((1.461734e+02 2.702032e-14 2.143757e+03) (2.723329e+01 2.684398e-18 1.526756e+00)) ((-7.045985e-15 -7.945894e+02 2.190903e-15) (-2.707167e-18 2.669869e+01 1.697164e-16))
0.00721419    	((1.457153e+02 2.753360e-14 2.114902e+03) (2.697596e+01 2.811582e-18 1.505263e+00)) ((-8.636440e-15 -7.829443e+02 2.376480e-15) (-5.863275e-19 2.645190e+01 1.888769e-16))
0.00744666    	((1.484776e+02 2.769941e-14 1.964656e+03) (2.659780e+01 2.441635e-18 1.479389e+00)) ((-7.255187e-15 -7.538923e+02 2.445047e-15) (8.606056e-19 2.608969e+01 2.175583e-16))
0.00770285    	((1.572915e+02 2.825016e-14 1.843291e+03) (2.693682e+01 3.101291e-18 1.422043e+00)) ((-8.036044e-15 -7.191089e+02 2.671385e-15) (-2.658478e-18 2.647897e+01 1.679307e-16))
0.00794397    	((1.361226e+02 2.703957e-14 2.072108e+03) (2.674346e+01 3.232498e-18 1.368490e+00)) ((-8.300260e-15 -7.735337e+02 2.537736e-15) (-2.770996e-18 2.630987e+01 1.724868e-16))
0.00816317    	((1.373052e+02 2.668809e-14 1.911286e+03) (2.656157e+01 2.799416e-18 1.334490e+00)) ((-2.857266e-14 -7.286659e+02 2.485344e-15) (2.718327e-18 2.614690e+01 1.857687e-16))
0.00839991    	((1.368250e+02 2.704424e-14 1.980858e+03) (2.637043e+01 3.325242e-18 1.229035e+00)) ((-9.058598e-15 -7.381030e+02 2.705770e-15) (8.164161e-18 2.599563e+01 2.044844e-16))
0.00863191    	((1.357536e+02 2.645244e-14 1.965491e+03) (2.617122e+01 2.594618e-18 1.093018e+00)) ((-6.267529e-15 -7.512221e+02 2.463242e-15) (1.783802e-17 2.584488e+01 2.261826e-16))
0.00882138    	((1.531920e+02 2.821374e-14 1.711239e+03) (2.599458e+01 8.573959e-19 9.489857e-01)) ((-9.233374e-15 -6.896838e+02 2.772919e-15) (2.950393e-17 2.572158e+01 2.507192e-16))
0.00901749    	((1.291197e+02 2.674144e-14 2.067798e+03) (2.627973e+01 -1.106976e-18 7.747706e-01)) ((-6.632112e-15 -8.016807e+02 2.435231e-15) (3.906865e-17 2.609296e+01 2.244922e-16))
0.00918141    	((1.336146e+02 2.714598e-14 2.013433e+03) (2.619390e+01 -2.445769e-18 6.482337e-01)) ((-7.344302e-15 -7.616457e+02 2.728709e-15) (5.031565e-17 2.605615e+01 2.361810e-16))
0.00933596    	((1.330298e+02 2.709133e-14 1.988215e+03) (2.611668e+01 -3.482290e-19 5.125297e-01)) ((-7.087283e-15 -7.537056e+02 2.781578e-15) (5.790445e-17 2.603075e+01 2.499063e-16))
0.00949052    	((1.339889e+02 2.717530e-14 1.979683e+03) (2.602202e+01 1.875419e-18 3.591131e-01)) ((-7.223952e-15 -7.537061e+02 2.779839e-15) (6.573557e-17 2.599265e+01 2.653559e-16))
0.00964737    	((1.319503e+02 2.708382e-14 1.967793e+03) (2.592976e+01 2.297389e-19 1.848807e-01)) ((-6.911730e-15 -7.563068e+02 2.769770e-15) (7.827582e-17 2.596450e+01 2.819944e-16))
0.00979962    	((1.345388e+02 2.704038e-14 1.896967e+03) (2.586281e+01 -4.828442e-18 -9.975823e-04)) ((-6.651683e-15 -7.218153e+02 2.909393e-15) (9.486544e-17 2.596736e+01 2.955416e-16))
0.00993562    	((1.312655e+02 2.673462e-14 1.943147e+03) (2.597327e+01 -1.103541e-17 -1.876778e-01)) ((-6.586995e-15 -7.593440e+02 2.622136e-15) (1.111783e-16 2.615415e+01 2.894675e-16))
0.0100584     	((1.313115e+02 2.707044e-14 1.950886e+03) (2.594352e+01 -1.756821e-17 -3.627611e-01)) ((-6.588430e-15 -7.475214e+02 2.842693e-15) (1.278134e-16 2.619044e+01 2.964645e-16))
0.0101726     	((1.353414e+02 2.826596e-14 1.858785e+03) (2.592253e+01 -2.427170e-17 -5.312890e-01)) ((-8.783883e-15 -7.250434e+02 3.123254e-15) (1.439395e-16 2.623468e+01 3.018636e-16))
0.0102795     	((1.466869e+02 3.366945e-14 1.444701e+03) (2.599327e+01 -2.936715e-17 -6.889167e-01)) ((-1.818939e-14 -6.142996e+02 4.683654e-15) (1.566481e-16 2.636976e+01 3.035114e-16))
0.0103818     	((1.312495e+02 2.686340e-14 1.956443e+03) (2.598144e+01 -3.071930e-17 -8.236986e-01)) ((-6.394684e-15 -7.528054e+02 2.736433e-15) (1.634599e-16 2.640988e+01 3.054180e-16))
0.010482      	((1.310447e+02 2.690396e-14 1.946733e+03) (2.595895e+01 -3.136958e-17 -9.338819e-01)) ((-6.317117e-15 -7.504840e+02 2.762188e-15) (1.670647e-16 2.642938e+01 3.043207e-16))
0.0105822     	((1.316836e+02 2.744966e-14 1.895765e+03) (2.591635e+01 -3.163060e-17 -1.017070e+00)) ((-7.041728e-15 -7.326044e+02 2.981530e-15) (1.676618e-16 2.641773e+01 3.008777e-16))
0.0106813     	((1.303311e+02 2.714465e-14 1.933816e+03) (2.584805e+01 -3.124260e-17 -1.076176e+00)) ((-6.443472e-15 -7.519829e+02 2.806393e-15) (1.652691e-16 2.637003e+01 2.955364e-16))
0.0107815     	((1.299244e+02 2.710500e-14 1.920177e+03) (2.576466e+01 -2.835384e-17 -1.122688e+00)) ((-6.244065e-15 -7.438924e+02 2.866375e-15) (1.585802e-16 2.630142e+01 2.896129e-16))
0.0108839     	((1.291850e+02 2.708044e-14 1.916750e+03) (2.568128e+01 -2.364525e-17 -1.159894e+00)) ((-6.139356e-15 -7.427217e+02 2.883226e-15) (1.484881e-16 2.622882e+01 2.838125e-16))
0.0109899     	((1.285233e+02 2.697962e-14 1.907781e+03) (2.560679e+01 -1.960000e-17 -1.211740e+00)) ((-6.160749e-15 -7.389844e+02 2.897102e-15) (1.392696e-16 2.616995e+01 2.778734e-16))
0.0111012     	((1.286048e+02 2.689387e-14 1.907799e+03) (2.554279e+01 -1.627512e-17 -1.271491e+00)) ((-6.107667e-15 -7.402819e+02 2.862661e-15) (1.306198e-16 2.612419e+01 2.717981e-16))
0.0112124     	((1.283735e+02 2.678893e-14 1.922444e+03) (2.548761e+01 -1.519687e-17 -1.333727e+00)) ((-6.056444e-15 -7.514560e+02 2.756748e-15) (1.242467e-16 2.608793e+01 2.652590e-16))
0.0113183     	((1.272837e+02 2.677818e-14 1.905170e+03) (2.543912e+01 -1.658688e-17 -1.396290e+00)) ((-6.079895e-15 -7.373251e+02 2.884432e-15) (1.207122e-16 2.605820e+01 2.582189e-16))
0.0114192     	((1.276833e+02 2.679411e-14 1.900494e+03) (2.539545e+01 -1.804593e-17 -1.459207e+00)) ((-6.110068e-15 -7.353689e+02 2.888001e-15) (1.175389e-16 2.603306e+01 2.514756e-16))
0.0115156     	((1.280500e+02 2.678186e-14 1.907492e+03) (2.527455e+01 -2.262574e-17 -1.511785e+00)) ((-6.134675e-15 -7.420066e+02 2.823643e-15) (1.192260e-16 2.591855e+01 2.521493e-16))
0.0116078     	((1.284566e+02 2.680403e-14 1.904928e+03) (2.513868e+01 -2.777230e-17 -1.567437e+00)) ((-6.168964e-15 -7.427447e+02 2.810809e-15) (1.221874e-16 2.578877e+01 2.566272e-16))
0.0116962     	((1.261581e+02 2.662360e-14 1.927381e+03) (2.495946e+01 -3.276182e-17 -1.622945e+00)) ((-5.969278e-15 -7.545226e+02 2.734245e-15) (1.253945e-16 2.561262e+01 2.636362e-16))
0.0117818     	((1.254141e+02 2.662272e-14 1.921897e+03) (2.471857e+01 -3.760136e-17 -1.678444e+00)) ((-5.963255e-15 -7.514694e+02 2.769633e-15) (1.289634e-16 2.537211e+01 2.765571e-16))
0.0118648     	((1.252622e+02 2.689102e-14 1.906173e+03) (2.449135e+01 -4.211297e-17 -1.744373e+00)) ((-5.842378e-15 -7.435581e+02 2.886862e-15) (1.312195e-16 2.515494e+01 2.874186e-16))
0.0119454     	((1.263977e+02 2.714815e-14 1.886904e+03) (2.430461e+01 -4.592054e-17 -1.821593e+00)) ((-5.920876e-15 -7.355039e+02 2.969740e-15) (1.314938e-16 2.499008e+01 2.932002e-16))
0.0120236     	((1.420793e+02 4.146467e-14 1.115889e+03) (2.421376e+01 -4.899384e-17 -1.905131e+00)) ((-1.164280e-14 -5.130834e+02 7.198883e-15) (1.295879e-16 2.493371e+01 2.971453e-16))
0.0121002     	((1.280108e+02 2.784231e-14 1.842941e+03) (2.413258e+01 -5.103883e-17 -1.987179e+00)) ((-6.345499e-15 -7.261582e+02 3.152638e-15) (1.253791e-16 2.489011e+01 2.929230e-16))
0.0121748     	((1.273192e+02 2.697320e-14 1.900566e+03) (2.407606e+01 -5.035329e-17 -2.062496e+00)) ((-5.950135e-15 -7.497318e+02 2.800985e-15) (1.173586e-16 2.487234e+01 2.840714e-16))
0.0122479     	((1.264449e+02 2.692657e-14 1.886771e+03) (2.403768e+01 -4.887654e-17 -2.129401e+00)) ((-5.901093e-15 -7.372545e+02 2.894323e-15) (1.073444e-16 2.487304e+01 2.690827e-16))
0.0123197     	((1.272206e+02 2.700890e-14 1.885871e+03) (2.400872e+01 -4.684539e-17 -2.171682e+00)) ((-5.942437e-15 -7.392646e+02 2.858550e-15) (9.746195e-17 2.486786e+01 2.513304e-16))
0.0123901     	((1.264102e+02 2.701630e-14 1.871199e+03) (2.396420e+01 -4.435255e-17 -2.191187e+00)) ((-5.906831e-15 -7.277699e+02 2.953831e-15) (8.791254e-17 2.483239e+01 2.317268e-16))
0.0124593     	((1.262759e+02 2.696435e-14 1.861273e+03) (2.391459e+01 -4.130733e-17 -2.202053e+00)) ((-5.797441e-15 -7.189715e+02 3.003155e-15) (7.892969e-17 2.478737e+01 2.135114e-16))
0.0125279     	((1.260793e+02 2.695206e-14 1.855675e+03) (2.385998e+01 -3.773900e-17 -2.208169e+00)) ((-5.685973e-15 -7.151793e+02 3.022909e-15) (6.977382e-17 2.473638e+01 1.942789e-16))
0.0126057     	((1.264216e+02 2.702264e-14 1.833142e+03) (2.377665e+01 -3.411528e-17 -2.225276e+00)) ((-5.731922e-15 -7.043858e+02 3.106345e-15) (6.166508e-17 2.466245e+01 1.749320e-16))
0.0126927     	((1.275549e+02 2.713657e-14 1.822298e+03) (2.368771e+01 -3.142430e-17 -2.278101e+00)) ((-6.027164e-15 -7.001173e+02 3.143842e-15) (5.602413e-17 2.460475e+01 1.608373e-16))
0.0127889     	((1.280939e+02 2.722066e-14 1.803011e+03) (2.359600e+01 -2.959296e-17 -2.360130e+00)) ((-6.262263e-15 -6.876068e+02 3.251147e-15) (5.103551e-17 2.456328e+01 1.475189e-16))
0.012885      	((1.284441e+02 2.718179e-14 1.795203e+03) (2.351707e+01 -2.847957e-17 -2.447652e+00)) ((-6.389685e-15 -6.803441e+02 3.279631e-15) (4.741813e-17 2.453634e+01 1.346501e-16))
0.0129799     	((1.269069e+02 2.688781e-14 1.787142e+03) (2.348042e+01 -2.722126e-17 -2.474425e+00)) ((-6.758351e-15 -6.744470e+02 3.143034e-15) (4.908621e-17 2.449029e+01 1.216098e-16))
0.0130747     	((1.263741e+02 2.672996e-14 1.790172e+03) (2.346662e+01 -2.589675e-17 -2.468321e+00)) ((-7.009818e-15 -6.777288e+02 2.995902e-15) (5.762071e-17 2.443389e+01 1.057261e-16))
0.0131696     	((1.268834e+02 2.683927e-14 1.801462e+03) (2.342465e+01 -2.440936e-17 -2.500251e+00)) ((-6.794667e-15 -6.872189e+02 3.015196e-15) (6.237943e-17 2.438722e+01 9.806740e-17))
0.0132632     	((1.273380e+02 2.697675e-14 1.781303e+03) (2.336614e+01 -2.309035e-17 -2.563597e+00)) ((-6.658565e-15 -6.718884e+02 3.233234e-15) (6.380878e-17 2.435589e+01 8.871956e-17))
0.0133567     	((1.285026e+02 2.713199e-14 1.768216e+03) (2.330459e+01 -2.285052e-17 -2.648041e+00)) ((-6.631888e-15 -6.647616e+02 3.334500e-15) (6.510484e-17 2.434141e+01 8.080390e-17))
0.013449      	((1.276757e+02 2.709688e-14 1.774384e+03) (2.325236e+01 -2.510373e-17 -2.747441e+00)) ((-6.484597e-15 -6.689638e+02 3.338602e-15) (6.786918e-17 2.434994e+01 6.848100e-17))
0.0135413     	((1.268627e+02 2.703770e-14 1.781517e+03) (2.318345e+01 -2.746875e-17 -2.852672e+00)) ((-6.338419e-15 -6.741929e+02 3.309185e-15) (7.042312e-17 2.434694e+01 6.058151e-17))
0.0136335     	((1.265850e+02 2.703495e-14 1.780286e+03) (2.312987e+01 -2.977086e-17 -2.961682e+00)) ((-6.295270e-15 -6.743865e+02 3.299729e-15) (7.202454e-17 2.436302e+01 5.499943e-17))
0.0137245     	((1.274834e+02 2.711396e-14 1.780527e+03) (2.307629e+01 -3.163228e-17 -3.065129e+00)) ((-6.302868e-15 -6.777005e+02 3.236583e-15) (7.130047e-17 2.437541e+01 4.955043e-17))
0.0138154     	((1.263002e+02 2.699209e-14 1.784711e+03) (2.304032e+01 -3.320517e-17 -3.160316e+00)) ((-6.079760e-15 -6.786506e+02 3.182631e-15) (6.793719e-17 2.439950e+01 4.789591e-17))
0.0139064     	((1.263554e+02 2.700185e-14 1.775848e+03) (2.300451e+01 -3.452815e-17 -3.241445e+00)) ((-5.920100e-15 -6.738439e+02 3.147908e-15) (6.068080e-17 2.441215e+01 4.723326e-17))
0.0139973     	((1.283953e+02 2.922440e-14 1.540941e+03) (2.297982e+01 -3.550200e-17 -3.305362e+00)) ((-1.164606e-15 -6.028355e+02 3.541011e-15) (4.934627e-17 2.442226e+01 5.006557e-17))
0.0140869     	((1.310526e+02 3.123942e-14 1.343129e+03) (2.300908e+01 -3.622790e-17 -3.349657e+00)) ((2.852359e-15 -5.477382e+02 3.830031e-15) (3.452529e-17 2.447392e+01 5.350589e-17))
0.0141765     	((1.264800e+02 2.701793e-14 1.745684e+03) (2.302165e+01 -3.425659e-17 -3.379457e+00)) ((-5.044875e-15 -6.599013e+02 3.020042e-15) (1.434530e-17 2.449959e+01 5.542532e-17))
0.0142661     	((1.262784e+02 2.694981e-14 1.737589e+03) (2.302185e+01 -3.164651e-17 -3.397260e+00)) ((-5.065426e-15 -6.511029e+02 3.038351e-15) (-6.574242e-18 2.450978e+01 6.634721e-17))
0.0143557     	((1.261966e+02 2.695078e-14 1.730272e+03) (2.300222e+01 -2.878916e-17 -3.407173e+00)) ((-5.110954e-15 -6.476683e+02 3.044984e-15) (-2.754030e-17 2.450170e+01 7.728088e-17))
0.0144453     	((1.258744e+02 2.693825e-14 1.734917e+03) (2.297374e+01 -2.574709e-17 -3.419849e+00)) ((-5.331097e-15 -6.518120e+02 3.091024e-15) (-4.769535e-17 2.449611e+01 8.506995e-17))
0.0145349     	((1.256297e+02 2.695073e-14 1.743396e+03) (2.291493e+01 -2.274254e-17 -3.431881e+00)) ((-5.445210e-15 -6.613470e+02 3.076618e-15) (-6.792035e-17 2.446394e+01 8.781579e-17))
0.0146245     	((1.252189e+02 2.688544e-14 1.752128e+03) (2.284979e+01 -1.973247e-17 -3.444723e+00)) ((-5.514741e-15 -6.686202e+02 3.052390e-15) (-8.886104e-17 2.442782e+01 8.851426e-17))
0.0147141     	((1.239481e+02 2.673008e-14 1.757332e+03) (2.279532e+01 -1.711020e-17 -3.461756e+00)) ((-5.487360e-15 -6.693307e+02 3.079257e-15) (-1.105210e-16 2.440517e+01 8.645813e-17))
0.0148037     	((1.238867e+02 2.681976e-14 1.760347e+03) (2.275178e+01 -1.556986e-17 -3.499589e+00)) ((-5.586872e-15 -6.726113e+02 3.110284e-15) (-1.315347e-16 2.440125e+01 8.534346e-17))
0.0148933     	((1.240019e+02 2.692490e-14 1.762474e+03) (2.271347e+01 -1.471341e-17 -3.550823e+00)) ((-5.673564e-15 -6.752526e+02 3.135601e-15) (-1.514258e-16 2.440691e+01 8.567611e-17))
0.0149828     	((1.245850e+02 2.700613e-14 1.766061e+03) (2.269029e+01 -1.419886e-17 -3.610840e+00)) ((-5.785171e-15 -6.786156e+02 3.130120e-15) (-1.704226e-16 2.443081e+01 8.586656e-17))
0.0150724     	((1.249754e+02 2.706348e-14 1.748191e+03) (2.268318e+01 -1.386457e-17 -3.677543e+00)) ((-5.927003e-15 -6.653014e+02 3.253867e-15) (-1.892170e-16 2.447390e+01 8.092505e-17))
0.015162      	((1.250706e+02 2.708769e-14 1.740652e+03) (2.268350e+01 -1.380526e-17 -3.747786e+00)) ((-5.984931e-15 -6.600277e+02 3.306487e-15) (-2.070975e-16 2.452566e+01 7.833172e-17))
0.0152516     	((1.247469e+02 2.708283e-14 1.740103e+03) (2.268940e+01 -1.374889e-17 -3.823158e+00)) ((-5.962438e-15 -6.598544e+02 3.319247e-15) (-2.253818e-16 2.458511e+01 7.152415e-17))
0.0153429     	((1.247478e+02 2.709156e-14 1.755087e+03) (2.270668e+01 -1.366012e-17 -3.904440e+00)) ((-5.956823e-15 -6.731816e+02 3.211327e-15) (-2.434463e-16 2.465906e+01 7.119509e-17))
0.0154343     	((1.237993e+02 2.698498e-14 1.753544e+03) (2.270824e+01 -1.360694e-17 -3.986198e+00)) ((-5.925704e-15 -6.693323e+02 3.256315e-15) (-2.620745e-16 2.471588e+01 6.504442e-17))
0.0155256     	((1.237800e+02 2.703692e-14 1.748369e+03) (2.272705e+01 -1.373637e-17 -4.071427e+00)) ((-5.950559e-15 -6.683612e+02 3.268890e-15) (-2.803789e-16 2.479209e+01 6.012514e-17))
0.0156169     	((1.233063e+02 2.700885e-14 1.748620e+03) (2.275848e+01 -1.430723e-17 -4.158954e+00)) ((-5.914911e-15 -6.680500e+02 3.279425e-15) (-2.978515e-16 2.488233e+01 6.047519e-17))
0.0157082     	((1.231509e+02 2.699755e-14 1.748509e+03) (2.276483e+01 -1.476286e-17 -4.240989e+00)) ((-5.934733e-15 -6.689028e+02 3.276253e-15) (-3.158317e-16 2.494307e+01 5.448385e-17))
0.0157995     	((1.230373e+02 2.699416e-14 1.753375e+03) (2.279823e+01 -1.511741e-17 -4.322100e+00)) ((-5.930362e-15 -6.725951e+02 3.250556e-15) (-3.333783e-16 2.503191e+01 5.069188e-17))
0.0158908     	((1.226140e+02 2.695562e-14 1.766206e+03) (2.282616e+01 -1.545766e-17 -4.398291e+00)) ((-5.878065e-15 -6.817938e+02 3.182217e-15) (-3.502530e-16 2.511256e+01 5.027321e-17))
0.0159821     	((1.224425e+02 2.694955e-14 1.757713e+03) (2.283360e+01 -1.580576e-17 -4.467029e+00)) ((-5.872923e-15 -6.758459e+02 3.240163e-15) (-3.670899e-16 2.516779e+01 4.810972e-17))
0.0160735     	((1.227867e+02 2.699407e-14 1.751797e+03) (2.285507e+01 -1.614324e-17 -4.532212e+00)) ((-5.882822e-15 -6.730502e+02 3.263905e-15) (-3.841311e-16 2.523629e+01 4.280453e-17))
0.0161648     	((1.228224e+02 2.698166e-14 1.750887e+03) (2.290094e+01 -1.649054e-17 -4.593461e+00)) ((-5.856397e-15 -6.718806e+02 3.273114e-15) (-4.006723e-16 2.532865e+01 4.124114e-17))
0.0162561     	((1.230985e+02 2.702864e-14 1.734590e+03) (2.290986e+01 -1.685224e-17 -4.644974e+00)) ((-5.830172e-15 -6.621743e+02 3.348475e-15) (-4.173105e-16 2.537735e+01 3.925075e-17))
0.0163474     	((1.237730e+02 2.703443e-14 1.705682e+03) (2.291724e+01 -1.715552e-17 -4.690297e+00)) ((-5.513754e-15 -6.515252e+02 3.330857e-15) (-4.344413e-16 2.542155e+01 3.395576e-17))
0.0164387     	((1.245711e+02 2.442160e-14 1.185749e+03) (2.295575e+01 -1.635282e-17 -4.718401e+00)) ((3.602358e-15 -4.874638e+02 1.777981e-15) (-4.519478e-16 2.549108e+01 3.581412e-17))
0.01653       	((1.233399e+02 2.698909e-14 1.731352e+03) (2.298482e+01 -1.571803e-17 -4.737578e+00)) ((-5.641365e-15 -6.602297e+02 3.342872e-15) (-4.685645e-16 2.554682e+01 2.938239e-17))
0.0166213     	((1.226600e+02 2.691109e-14 1.736526e+03) (2.296953e+01 -1.499425e-17 -4.736699e+00)) ((-5.430067e-15 -6.661055e+02 3.277739e-15) (-4.838310e-16 2.554648e+01 2.217619e-17))
0.0167127     	((1.227487e+02 2.692088e-14 1.735543e+03) (2.295171e+01 -1.324143e-17 -4.721899e+00)) ((-5.299506e-15 -6.677149e+02 3.246405e-15) (-4.978268e-16 2.553715e+01 1.655937e-17))
0.016804      	((1.221924e+02 2.682525e-14 1.730692e+03) (2.291649e+01 -1.129049e-17 -4.697495e+00)) ((-5.159600e-15 -6.632251e+02 3.273844e-15) (-5.085448e-16 2.550446e+01 8.993794e-18))
0.016898      	((1.224078e+02 2.686132e-14 1.732694e+03) (2.289589e+01 -9.178630e-18 -4.669783e+00)) ((-5.072957e-15 -6.684967e+02 3.207362e-15) (-5.144555e-16 2.548528e+01 -2.190711e-19))
0.016992      	((1.217938e+02 2.671789e-14 1.736986e+03) (2.285102e+01 -7.162490e-18 -4.643863e+00)) ((-4.840342e-15 -6.742628e+02 3.103853e-15) (-5.134601e-16 2.543937e+01 -3.069974e-18))
0.017086      	((1.218482e+02 2.658389e-14 1.694342e+03) (2.284286e+01 -5.384764e-18 -4.639571e+00)) ((-4.573473e-15 -6.543381e+02 3.126400e-15) (-5.067747e-16 2.543994e+01 -5.742276e-18))
0.01718       	((1.225328e+02 2.690304e-14 1.718647e+03) (2.285235e+01 -3.996201e-18 -4.650296e+00)) ((-5.525211e-15 -6.571719e+02 3.349344e-15) (-4.963233e-16 2.546413e+01 -3.332535e-18))
0.017274      	((1.230541e+02 2.698162e-14 1.706564e+03) (2.287774e+01 -2.768144e-18 -4.671518e+00)) ((-5.670415e-15 -6.494593e+02 3.427292e-15) (-4.849366e-16 2.550880e+01 -3.719636e-18))
0.017368      	((1.236230e+02 2.706276e-14 1.703065e+03) (2.290635e+01 -2.486323e-18 -4.698910e+00)) ((-5.803952e-15 -6.475931e+02 3.461536e-15) (-4.717181e-16 2.555882e+01 -1.415636e-18))
0.0174529     	((1.233086e+02 2.702492e-14 1.711205e+03) (2.293776e+01 -2.783851e-18 -4.729910e+00)) ((-5.819553e-15 -6.510298e+02 3.455481e-15) (-4.590374e-16 2.561248e+01 2.700754e-18))
0.0175472     	((1.237611e+02 2.708932e-14 1.702808e+03) (2.296055e+01 -3.066953e-18 -4.769098e+00)) ((-5.837546e-15 -6.480998e+02 3.480046e-15) (-4.450504e-16 2.566211e+01 7.080059e-18))
0.0176453     	((1.239214e+02 2.709443e-14 1.692337e+03) (2.301872e+01 -3.315947e-18 -4.815577e+00)) ((-5.894539e-15 -6.419265e+02 3.510186e-15) (-4.305941e-16 2.575226e+01 1.032042e-17))
0.0177294     	((1.231449e+02 2.687160e-14 1.692549e+03) (2.304117e+01 -3.517160e-18 -4.851144e+00)) ((-6.326229e-15 -6.378171e+02 3.399766e-15) (-4.180041e-16 2.579659e+01 1.464427e-17))
0.0178203     	((1.239406e+02 2.703300e-14 1.691323e+03) (2.308854e+01 -3.873659e-18 -4.893745e+00)) ((-6.156279e-15 -6.393753e+02 3.482618e-15) (-4.044376e-16 2.587155e+01 1.793429e-17))
0.0179041     	((1.228586e+02 2.678770e-14 1.695024e+03) (2.312802e+01 -4.203582e-18 -4.932174e+00)) ((-6.444522e-15 -6.423710e+02 3.283613e-15) (-3.912771e-16 2.593537e+01 2.679841e-17))
0.0179952     	((1.243326e+02 2.711667e-14 1.682773e+03) (2.317695e+01 -4.529764e-18 -4.971577e+00)) ((-6.182284e-15 -6.346195e+02 3.570281e-15) (-3.769331e-16 2.600917e+01 3.099244e-17))
0.0180824     	((1.243812e+02 2.713087e-14 1.682641e+03) (2.323192e+01 -4.778067e-18 -5.006223e+00)) ((-6.214176e-15 -6.340464e+02 3.593315e-15) (-3.624646e-16 2.608536e+01 3.682672e-17))
0.0181695     	((1.243156e+02 2.712718e-14 1.677294e+03) (2.326352e+01 -5.047172e-18 -5.035048e+00)) ((-6.214262e-15 -6.307789e+02 3.626357e-15) (-3.471552e-16 2.613305e+01 4.354571e-17))
0.0182567     	((1.244319e+02 2.715853e-14 1.677830e+03) (2.329918e+01 -5.279197e-18 -5.060851e+00)) ((-6.319266e-15 -6.316017e+02 3.633139e-15) (-3.310387e-16 2.618297e+01 5.004616e-17))
0.0183439     	((1.244912e+02 2.718363e-14 1.682446e+03) (2.332981e+01 -5.461053e-18 -5.081530e+00)) ((-6.376791e-15 -6.356501e+02 3.613313e-15) (-3.141080e-16 2.622466e+01 5.362871e-17))
0.018431      	((1.240800e+02 2.715372e-14 1.686639e+03) (2.336296e+01 -5.606031e-18 -5.097192e+00)) ((-6.407953e-15 -6.367767e+02 3.642076e-15) (-2.950771e-16 2.626645e+01 6.545703e-17))
0.0185182     	((1.241565e+02 2.718048e-14 1.682117e+03) (2.339984e+01 -5.707280e-18 -5.106574e+00)) ((-6.498228e-15 -6.334164e+02 3.691564e-15) (-2.748237e-16 2.630903e+01 7.293034e-17))
0.0186054     	((1.246562e+02 2.726264e-14 1.672495e+03) (2.342194e+01 -5.745733e-18 -5.107211e+00)) ((-6.581693e-15 -6.312536e+02 3.692288e-15) (-2.531789e-16 2.633178e+01 7.671546e-17))
0.0186925     	((1.240958e+02 2.719599e-14 1.678657e+03) (2.342844e+01 -5.640042e-18 -5.097518e+00)) ((-6.604766e-15 -6.340242e+02 3.681385e-15) (-2.285694e-16 2.633313e+01 9.071307e-17))