# Forces      
# CofR        : (0.000000e+00 0.000000e+00 -1.000000e+00)
# Time        forces(pressure viscous)	moments(pressure viscous)
0             	((1.136868e-13 6.764460e-14 3.410605e-13) (1.233245e+01 -7.994112e-18 2.268296e+00)) ((-2.248934e-14 1.136868e-13 2.716866e-14) (-8.781955e-18 1.121657e+01 8.655840e-17))
1.19976e-05   	((1.750279e+05 5.845315e-13 1.739313e+06) (1.251504e+01 -7.812820e-18 1.979478e+00)) ((-9.520840e-12 -4.870636e+05 -6.047039e-12) (-1.041676e-17 1.149866e+01 9.162094e-17))
2.63878e-05   	((2.054629e+04 -1.686964e-13 2.881668e+05) (1.258279e+01 -7.797353e-18 1.882854e+00)) ((-1.082641e-12 -9.846471e+04 -1.037454e-12) (-1.073179e-17 1.159847e+01 9.248218e-17))
4.36511e-05   	((1.191175e+04 -7.593733e-14 1.675853e+05) (1.267340e+01 -7.627895e-18 1.827869e+00)) ((-6.957002e-13 -5.755334e+04 -5.882054e-13) (-1.059490e-17 1.170840e+01 9.360717e-17))
6.43527e-05   	((8.305410e+03 -3.439154e-14 1.134711e+05) (1.279952e+01 -7.379063e-18 1.789917e+00)) ((-5.054677e-13 -3.876279e+04 -3.903157e-13) (-1.058299e-17 1.184975e+01 9.432206e-17))
8.91792e-05   	((6.030867e+03 -2.910620e-14 7.849504e+04) (1.296305e+01 -7.042041e-18 1.764252e+00)) ((-3.189479e-13 -2.695454e+04 -2.643378e-13) (-1.102226e-17 1.202619e+01 9.519610e-17))
0.000118941   	((4.738935e+03 2.060276e-15 5.863271e+04) (1.318360e+01 -6.617461e-18 1.731823e+00)) ((-2.748506e-13 -1.961397e+04 -1.949353e-13) (-1.086557e-17 1.226025e+01 9.605088e-17))
0.000154634   	((3.450994e+03 1.111580e-14 4.301792e+04) (1.347785e+01 -6.091288e-18 1.706350e+00)) ((-2.090283e-13 -1.438167e+04 -1.388510e-13) (-1.093244e-17 1.256544e+01 9.721462e-17))
0.000197405   	((2.932370e+03 1.579937e-14 3.366999e+04) (1.388736e+01 -5.485258e-18 1.711150e+00)) ((-1.592069e-13 -1.106645e+04 -1.076762e-13) (-1.164770e-17 1.295806e+01 9.917476e-17))
0.000248707   	((1.411928e+03 -5.721603e-14 3.702716e+04) (1.441899e+01 -4.854363e-18 1.683272e+00)) ((-1.131610e-14 -1.801497e+04 -1.374218e-13) (-1.152333e-17 1.351197e+01 1.032575e-16))
0.000310237   	((1.682819e+03 6.475683e-15 2.366277e+04) (1.519326e+01 -3.911805e-18 1.676305e+00)) ((-8.322597e-14 -9.014637e+03 -7.623719e-14) (-1.175597e-17 1.429048e+01 1.084916e-16))
0.000383982   	((1.659960e+03 2.317537e-14 1.715976e+04) (1.634210e+01 -2.853615e-18 1.706968e+00)) ((-8.048455e-14 -5.555664e+03 -5.036223e-14) (-1.238004e-17 1.542218e+01 1.162113e-16))
0.000472342   	((1.596069e+03 2.179616e-14 1.410040e+04) (1.787681e+01 -2.089964e-18 1.796536e+00)) ((-4.691662e-14 -4.464260e+03 -3.997734e-14) (-1.325351e-17 1.692178e+01 1.261084e-16))
0.000577897   	((1.187158e+03 2.535597e-14 1.176141e+04) (1.954625e+01 -1.857781e-18 1.894567e+00)) ((-5.469697e-14 -3.747967e+03 -3.118012e-14) (-1.310173e-17 1.855772e+01 1.365348e-16))
0.000704014   	((1.201826e+03 2.686126e-14 1.062220e+04) (2.128442e+01 -1.808964e-18 2.004899e+00)) ((-4.225102e-14 -3.325629e+03 -2.769223e-14) (-1.328179e-17 2.026025e+01 1.469706e-16))
0.000854764   	((1.033727e+03 2.821711e-14 8.884445e+03) (2.302890e+01 -2.171610e-18 2.121819e+00)) ((-3.406585e-14 -2.763505e+03 -2.114588e-14) (-1.349595e-17 2.196697e+01 1.569256e-16))
0.00103538    	((7.714989e+02 2.762242e-14 7.398073e+03) (2.472533e+01 -2.254137e-18 2.209474e+00)) ((-3.431657e-14 -2.327164e+03 -1.556210e-14) (-1.319729e-17 2.363376e+01 1.673840e-16))
0.00125089    	((7.863500e+02 3.132892e-14 6.482981e+03) (2.627767e+01 -2.070823e-18 2.307071e+00)) ((-2.599307e-14 -2.007618e+03 -1.220296e-14) (-1.373303e-17 2.515983e+01 1.775887e-16))
0.00150087    	((6.573255e+02 2.828916e-14 5.850409e+03) (2.760096e+01 -2.008117e-18 2.353227e+00)) ((-2.546011e-14 -1.818792e+03 -1.039678e-14) (-1.314694e-17 2.647518e+01 1.878783e-16))
0.00178548    	((6.671294e+02 3.100457e-14 5.049112e+03) (2.862200e+01 -1.895234e-18 2.384307e+00)) ((-1.532841e-14 -1.559183e+03 -7.323305e-15) (-1.363678e-17 2.750018e+01 1.945857e-16))
0.00197134    	((9.060361e+02 2.745417e-14 6.071211e+03) (2.918191e+01 -1.901160e-18 2.368184e+00)) ((-1.337376e-14 -1.858989e+03 -1.296578e-14) (-1.331859e-17 2.807629e+01 1.992644e-16))
0.00215345    	((1.105572e+03 3.938313e-14 5.850825e+03) (2.963184e+01 -1.857152e-18 2.356157e+00)) ((-1.725883e-15 -1.748759e+03 -1.068444e-14) (-1.441401e-17 2.854527e+01 1.974320e-16))
0.00233372    	((4.939969e+03 4.886693e-14 1.187643e+04) (3.032132e+01 -2.005469e-18 2.289288e+00)) ((8.162068e-14 -1.906233e+03 -4.793912e-14) (-1.615702e-17 2.926520e+01 2.025722e-16))
0.00250358    	((2.973824e+02 2.223958e-14 6.300125e+03) (3.061411e+01 -1.796635e-18 2.193921e+00)) ((-2.042229e-14 -2.574558e+03 -1.273381e-14) (-2.054303e-17 2.960023e+01 2.035382e-16))
0.00266864    	((3.337966e+02 3.522759e-14 6.617236e+03) (3.079813e+01 -1.768290e-18 2.192440e+00)) ((-3.911390e-14 -3.193387e+03 -1.524413e-14) (-1.225206e-17 2.980643e+01 2.106456e-16))
0.00282339    	((2.305763e+02 1.372985e-14 6.868002e+03) (3.089293e+01 -1.839303e-18 2.137167e+00)) ((-1.015998e-14 -3.066522e+03 -1.733663e-14) (-1.061476e-17 2.993233e+01 2.161163e-16))
0.00297146    	((-1.443096e+01 -2.550560e-14 1.294875e+04) (3.091745e+01 -1.677077e-18 2.143196e+00)) ((4.083017e-14 -7.155757e+03 -5.048341e-14) (-1.181087e-17 2.997206e+01 2.198481e-16))
0.00309667    	((9.869293e+01 -1.812090e-14 1.167746e+04) (3.091184e+01 -1.589138e-18 2.131797e+00)) ((3.830501e-14 -6.351010e+03 -4.443197e-14) (-1.185297e-17 2.998327e+01 2.223639e-16))
0.00322873    	((8.873158e+02 2.655452e-14 4.783053e+03) (3.091673e+01 -1.516826e-18 2.094814e+00)) ((6.447542e-15 -1.468171e+03 -9.259080e-15) (-1.211500e-17 3.001140e+01 2.250836e-16))
0.00333355    	((1.064476e+03 3.069143e-14 5.032139e+03) (3.092615e+01 -1.482181e-18 2.056194e+00)) ((-5.988425e-15 -1.454575e+03 -1.072238e-14) (-1.195035e-17 3.004095e+01 2.271197e-16))
0.00345886    	((7.505008e+02 5.782728e-14 3.459609e+03) (3.074489e+01 -1.762688e-18 2.015739e+00)) ((-1.096007e-14 -1.631318e+03 -1.809352e-15) (-9.674410e-18 2.986765e+01 2.393036e-16))
0.00360924    	((4.539829e+02 2.386898e-14 4.143042e+03) (3.072668e+01 -1.310053e-18 2.044330e+00)) ((-2.281085e-15 -2.033399e+03 -1.016821e-14) (-5.341824e-18 2.983977e+01 2.311432e-16))
0.00378935    	((2.232141e+02 2.418452e-14 3.910973e+03) (3.054692e+01 -1.384573e-18 1.993334e+00)) ((-1.054404e-14 -1.584198e+03 -4.531851e-15) (-4.855725e-18 2.968502e+01 2.358391e-16))
0.0040055     	((2.183040e+02 2.703774e-14 3.208998e+03) (3.032625e+01 -1.388659e-18 1.935568e+00)) ((-1.317316e-14 -1.183086e+03 -1.269200e-15) (-4.642393e-18 2.949357e+01 2.388651e-16))
0.00425541    	((1.702217e+02 2.423444e-14 3.740924e+03) (3.001452e+01 -6.707619e-19 1.943635e+00)) ((-1.272497e-14 -1.632790e+03 -4.599995e-15) (-2.628720e-18 2.919145e+01 2.474322e-16))
0.0044113     	((2.787809e+02 3.127336e-14 3.033569e+03) (2.994624e+01 -3.169948e-19 1.929661e+00)) ((-1.643418e-14 -1.202330e+03 -1.211586e-15) (-2.277167e-18 2.913618e+01 2.429012e-16))
0.00457539    	((3.654497e+02 3.309043e-14 2.211817e+03) (2.978054e+01 -3.244458e-19 1.897277e+00)) ((-1.646147e-14 -8.273895e+02 5.296601e-16) (-1.210445e-18 2.898753e+01 2.466381e-16))
0.00474489    	((1.787615e+02 2.731919e-14 2.798057e+03) (2.959765e+01 -3.362386e-19 1.857196e+00)) ((-1.253276e-14 -1.016812e+03 2.977677e-16) (-4.439547e-19 2.882479e+01 2.513946e-16))
0.00494829    	((1.686273e+02 2.687368e-14 2.595118e+03) (2.937716e+01 4.519054e-20 1.853051e+00)) ((-9.563332e-15 -1.010665e+03 2.129511e-16) (-5.118705e-19 2.861360e+01 2.585630e-16))
0.00519106    	((1.932420e+02 3.044787e-14 2.263049e+03) (2.909708e+01 1.354728e-19 1.834644e+00)) ((-1.359439e-14 -8.420391e+02 1.869531e-15) (-1.341025e-19 2.834969e+01 2.626483e-16))
0.00547585    	((1.631175e+02 2.801910e-14 2.363153e+03) (2.908308e+01 4.302271e-19 1.757989e+00)) ((-1.105442e-14 -8.608369e+02 1.750767e-15) (-2.377127e-18 2.838242e+01 2.326438e-16))
0.00581362    	((1.865011e+02 2.952797e-14 2.020009e+03) (2.872497e+01 5.949372e-19 1.708961e+00)) ((-1.191284e-14 -7.410386e+02 2.467970e-15) (-6.750698e-19 2.805044e+01 2.309571e-16))
0.00618694    	((1.495615e+02 2.579360e-14 2.126380e+03) (2.816261e+01 6.151235e-19 1.691706e+00)) ((-4.121695e-15 -7.620709e+02 1.864764e-15) (-3.231759e-19 2.749085e+01 2.339747e-16))
0.00660552    	((1.443654e+02 2.665339e-14 2.131822e+03) (2.738553e+01 3.367572e-19 1.641920e+00)) ((-7.156401e-15 -7.770317e+02 2.139938e-15) (-5.635252e-20 2.673382e+01 2.522184e-16))
0.0070241     	((1.415991e+02 2.712732e-14 2.122629e+03) (2.760789e+01 8.250408e-19 1.532780e+00)) ((-8.412319e-15 -7.732107e+02 2.436418e-15) (-6.130773e-18 2.703012e+01 1.791952e-16))
0.0074296     	((1.378422e+02 2.694686e-14 2.108901e+03) (2.720056e+01 1.001245e-18 1.480024e+00)) ((-7.424857e-15 -7.871957e+02 2.361531e-15) (-5.531094e-18 2.664408e+01 1.757741e-16))
0.00783509    	((1.424842e+02 2.624228e-14 1.911883e+03) (2.679919e+01 8.682145e-19 1.433108e+00)) ((-4.785386e-15 -7.174140e+02 2.273728e-15) (-4.330508e-18 2.626596e+01 1.726709e-16))
0.00825457    	((1.418234e+02 2.859465e-14 1.917971e+03) (2.620165e+01 7.560300e-19 1.401165e+00)) ((-9.135463e-15 -7.186011e+02 3.047290e-15) (-2.255955e-18 2.567505e+01 1.891599e-16))
0.00862162    	((1.472494e+02 2.855294e-14 1.821033e+03) (2.565023e+01 7.879349e-19 1.357468e+00)) ((-9.142791e-15 -7.124173e+02 2.847674e-15) (8.905005e-19 2.512276e+01 2.167138e-16))
0.00901398    	((1.386490e+02 2.712830e-14 1.819874e+03) (2.587271e+01 1.392518e-18 1.200759e+00)) ((-1.169985e-14 -6.953335e+02 2.759636e-15) (-2.042354e-18 2.542959e+01 1.759417e-16))
0.0093928     	((1.338458e+02 2.687880e-14 1.821803e+03) (2.580765e+01 1.410110e-18 1.064975e+00)) ((-1.621512e-14 -7.140055e+02 2.627755e-15) (5.512952e-18 2.543305e+01 1.884766e-16))
0.00973497    	((1.267084e+02 2.685277e-14 2.008063e+03) (2.578037e+01 1.273230e-18 8.749560e-01)) ((-6.685770e-15 -7.730208e+02 2.640034e-15) (1.570978e-17 2.548921e+01 2.100822e-16))
0.0100369     	((1.279822e+02 2.708047e-14 1.978686e+03) (2.572375e+01 1.572988e-18 6.959219e-01)) ((-6.753547e-15 -7.564271e+02 2.782468e-15) (2.547207e-17 2.550696e+01 2.299278e-16))
0.010286      	((1.273802e+02 2.706762e-14 1.961689e+03) (2.566643e+01 2.603696e-18 5.381548e-01)) ((-6.750061e-15 -7.471739e+02 2.863692e-15) (3.360298e-17 2.551545e+01 2.500176e-16))
0.0105288     	((1.271891e+02 2.704726e-14 1.956501e+03) (2.564360e+01 3.550629e-18 3.564487e-01)) ((-6.591313e-15 -7.482832e+02 2.852638e-15) (4.225603e-17 2.556788e+01 2.654028e-16))
0.0107303     	((1.271946e+02 2.712826e-14 1.936260e+03) (2.559442e+01 1.914552e-18 1.772717e-01)) ((-7.739723e-15 -7.404971e+02 2.913218e-15) (5.352817e-17 2.559007e+01 2.805132e-16))
0.0109052     	((1.273678e+02 2.701144e-14 1.919014e+03) (2.562128e+01 5.213568e-19 -2.816354e-03)) ((-7.114044e-15 -7.482512e+02 2.756730e-15) (6.368585e-17 2.568953e+01 2.855623e-16))
0.0110676     	((1.378768e+02 3.306978e-14 1.498751e+03) (2.562590e+01 -1.804848e-19 -1.764772e-01)) ((-1.720650e-14 -6.132022e+02 4.646578e-15) (7.266100e-17 2.576430e+01 2.995419e-16))
0.0112216     	((1.263073e+02 2.685041e-14 1.974870e+03) (2.561563e+01 8.353640e-19 -3.302217e-01)) ((-5.879635e-15 -7.695693e+02 2.691639e-15) (7.871598e-17 2.581277e+01 3.068520e-16))
0.0113704     	((1.277256e+02 2.703104e-14 1.921377e+03) (2.555545e+01 2.171807e-18 -4.633197e-01)) ((-5.822029e-15 -7.405156e+02 2.939179e-15) (8.284799e-17 2.580159e+01 3.157098e-16))
0.0115167     	((1.276738e+02 2.708318e-14 1.904326e+03) (2.546033e+01 2.664254e-18 -5.666334e-01)) ((-5.670565e-15 -7.339004e+02 3.014291e-15) (8.553936e-17 2.574279e+01 3.224783e-16))
0.0116605     	((1.281145e+02 2.713120e-14 1.886972e+03) (2.531565e+01 2.093260e-18 -6.371258e-01)) ((-6.494597e-15 -7.301912e+02 3.003411e-15) (8.731444e-17 2.561975e+01 3.275207e-16))
0.0118068     	((1.263873e+02 2.708680e-14 1.902348e+03) (2.512190e+01 8.134342e-19 -6.854952e-01)) ((-5.879340e-15 -7.372432e+02 2.982463e-15) (8.836173e-17 2.543603e+01 3.331013e-16))
0.0119614     	((1.271672e+02 2.777045e-14 1.830772e+03) (2.487077e+01 -2.054793e-19 -7.147643e-01)) ((-7.003816e-15 -7.090654e+02 3.290650e-15) (8.854622e-17 2.518290e+01 3.426462e-16))
0.0121254     	((1.259596e+02 2.709004e-14 1.865261e+03) (2.458417e+01 4.963193e-19 -7.468792e-01)) ((-6.017290e-15 -7.182850e+02 3.119733e-15) (8.702401e-17 2.489231e+01 3.531510e-16))
0.0122861     	((1.248340e+02 2.691906e-14 1.884082e+03) (2.434667e+01 1.669981e-18 -7.910087e-01)) ((-5.855485e-15 -7.315745e+02 3.004909e-15) (8.419820e-17 2.465986e+01 3.575772e-16))
0.0124374     	((1.243906e+02 2.690112e-14 1.874103e+03) (2.415124e+01 3.143080e-18 -8.484759e-01)) ((-5.857620e-15 -7.268172e+02 3.047385e-15) (8.064406e-17 2.447878e+01 3.579934e-16))
0.0125801     	((1.246007e+02 2.691535e-14 1.878357e+03) (2.398917e+01 4.679560e-18 -9.203876e-01)) ((-5.864960e-15 -7.303683e+02 3.013712e-15) (7.706815e-17 2.434009e+01 3.554814e-16))
0.0127175     	((1.239679e+02 2.695622e-14 1.861492e+03) (2.384821e+01 5.311041e-18 -1.002382e+00)) ((-5.818820e-15 -7.193048e+02 3.122061e-15) (7.466928e-17 2.422867e+01 3.503176e-16))
0.0128499     	((1.236614e+02 2.700779e-14 1.868913e+03) (2.371929e+01 5.103342e-18 -1.088784e+00)) ((-5.734600e-15 -7.266080e+02 3.076448e-15) (7.337011e-17 2.413272e+01 3.433323e-16))
0.0129799     	((1.237592e+02 2.704299e-14 1.865207e+03) (2.359378e+01 4.741636e-18 -1.173532e+00)) ((-5.723194e-15 -7.252136e+02 3.088111e-15) (7.203384e-17 2.404211e+01 3.349259e-16))
0.0131099     	((1.238510e+02 2.764554e-14 1.816856e+03) (2.346376e+01 4.381374e-18 -1.256490e+00)) ((-6.027883e-15 -7.072036e+02 3.334593e-15) (6.991614e-17 2.395131e+01 3.250227e-16))
0.0132375     	((1.318800e+02 3.552726e-14 1.422629e+03) (2.337545e+01 3.474099e-18 -1.337661e+00)) ((-9.428494e-15 -6.021002e+02 5.497253e-15) (6.686597e-17 2.391216e+01 3.145570e-16))
0.0133651     	((1.233358e+02 2.683463e-14 1.855439e+03) (2.329099e+01 1.301168e-18 -1.399050e+00)) ((-5.630848e-15 -7.207776e+02 3.071962e-15) (6.463788e-17 2.386787e+01 2.939147e-16))
0.0134952     	((1.233765e+02 2.690246e-14 1.829495e+03) (2.319689e+01 -1.159585e-18 -1.430688e+00)) ((-5.613182e-15 -7.032784e+02 3.200967e-15) (6.305763e-17 2.379776e+01 2.703124e-16))
0.0136253     	((1.238041e+02 2.696910e-14 1.818953e+03) (2.308732e+01 -4.151984e-18 -1.448961e+00)) ((-5.637466e-15 -6.997227e+02 3.216947e-15) (6.212473e-17 2.370858e+01 2.457120e-16))
0.0137581     	((1.231197e+02 2.693773e-14 1.815196e+03) (2.296848e+01 -8.156396e-18 -1.468163e+00)) ((-5.527380e-15 -6.978687e+02 3.235237e-15) (6.254884e-17 2.361753e+01 2.219107e-16))
0.0138968     	((1.230858e+02 2.695617e-14 1.822335e+03) (2.285791e+01 -1.235865e-17 -1.482991e+00)) ((-5.601786e-15 -7.038593e+02 3.191442e-15) (6.271588e-17 2.352960e+01 2.019187e-16))
0.0140421     	((1.242966e+02 2.775888e-14 1.767872e+03) (2.273213e+01 -1.364693e-17 -1.513516e+00)) ((-6.132893e-15 -6.813620e+02 3.502794e-15) (5.852023e-17 2.343761e+01 1.896676e-16))
0.0141911     	((1.246292e+02 2.721255e-14 1.790482e+03) (2.259171e+01 -1.184975e-17 -1.566363e+00)) ((-6.125048e-15 -6.838411e+02 3.365064e-15) (5.155211e-17 2.334620e+01 1.809674e-16))
0.0143524     	((1.236223e+02 2.712769e-14 1.778572e+03) (2.244277e+01 -7.288616e-18 -1.651072e+00)) ((-6.169496e-15 -6.756911e+02 3.410785e-15) (4.562713e-17 2.327112e+01 1.715256e-16))
0.0145289     	((1.230039e+02 2.700672e-14 1.757300e+03) (2.232657e+01 -2.524930e-18 -1.727403e+00)) ((-6.460797e-15 -6.604205e+02 3.415299e-15) (4.421990e-17 2.321230e+01 1.589065e-16))
0.0147243     	((1.233257e+02 2.705350e-14 1.741020e+03) (2.225815e+01 1.650015e-18 -1.813663e+00)) ((-6.636773e-15 -6.510017e+02 3.441004e-15) (4.401948e-17 2.320235e+01 1.426382e-16))
0.014853      	((1.223992e+02 2.694416e-14 1.778039e+03) (2.222323e+01 3.589205e-18 -1.882177e+00)) ((-6.632183e-15 -6.731739e+02 3.232360e-15) (4.264591e-17 2.320971e+01 1.321091e-16))
0.0149816     	((1.212882e+02 2.686667e-14 1.787087e+03) (2.218722e+01 5.633756e-18 -1.970258e+00)) ((-6.186823e-15 -6.789586e+02 3.179079e-15) (3.663376e-17 2.322897e+01 1.228880e-16))
0.0151103     	((1.212331e+02 2.694115e-14 1.766801e+03) (2.216504e+01 6.269423e-18 -2.060968e+00)) ((-5.278336e-15 -6.710210e+02 3.152096e-15) (2.693313e-17 2.325965e+01 1.151587e-16))
0.015239      	((1.255058e+02 3.167373e-14 1.305945e+03) (2.220584e+01 5.447466e-18 -2.149639e+00)) ((2.736591e-15 -5.305332e+02 4.113211e-15) (1.424380e-17 2.334984e+01 1.103962e-16))
0.0153677     	((1.213302e+02 2.690002e-14 1.771192e+03) (2.223075e+01 4.618379e-18 -2.240709e+00)) ((-5.580601e-15 -6.717997e+02 3.087477e-15) (-9.339598e-19 2.342260e+01 1.087701e-16))
0.0154964     	((1.215337e+02 2.690793e-14 1.756235e+03) (2.226170e+01 3.171836e-18 -2.342412e+00)) ((-5.564933e-15 -6.628931e+02 3.146318e-15) (-1.609261e-17 2.350993e+01 1.080545e-16))
0.015625      	((1.220356e+02 2.692257e-14 1.750275e+03) (2.230587e+01 1.207301e-18 -2.451272e+00)) ((-5.529173e-15 -6.607554e+02 3.120030e-15) (-3.138975e-17 2.361669e+01 1.060006e-16))
0.0157537     	((1.218334e+02 2.695883e-14 1.726842e+03) (2.234322e+01 -1.526881e-18 -2.573135e+00)) ((-5.390745e-15 -6.472383e+02 3.250335e-15) (-4.542413e-17 2.372544e+01 1.054440e-16))
0.0158864     	((1.221292e+02 2.719945e-14 1.695569e+03) (2.237139e+01 -4.934397e-18 -2.716888e+00)) ((-4.997225e-15 -6.367590e+02 3.345479e-15) (-5.992827e-17 2.383307e+01 1.010400e-16))
0.0160074     	((1.213766e+02 2.689587e-14 1.748986e+03) (2.242956e+01 -8.506943e-18 -2.872078e+00)) ((-5.463975e-15 -6.655422e+02 3.134313e-15) (-7.324985e-17 2.397098e+01 9.492631e-17))
0.0161405     	((1.205718e+02 2.694054e-14 1.748057e+03) (2.251396e+01 -1.100971e-17 -3.080503e+00)) ((-5.512353e-15 -6.658527e+02 3.206730e-15) (-8.922520e-17 2.415409e+01 8.815135e-17))
0.0162834     	((1.202528e+02 2.692437e-14 1.744247e+03) (2.263855e+01 -1.126709e-17 -3.334394e+00)) ((-5.609653e-15 -6.619725e+02 3.274380e-15) (-1.085636e-16 2.439114e+01 8.007365e-17))
0.0164264     	((1.203888e+02 2.698446e-14 1.741628e+03) (2.279687e+01 -1.044620e-17 -3.616280e+00)) ((-5.686566e-15 -6.617826e+02 3.288751e-15) (-1.281898e-16 2.466525e+01 7.269701e-17))
0.0165455     	((1.201357e+02 2.690765e-14 1.748098e+03) (2.295123e+01 -8.654882e-18 -3.877019e+00)) ((-5.731670e-15 -6.630035e+02 3.283184e-15) (-1.449755e-16 2.491843e+01 6.848382e-17))
0.0166734     	((1.203239e+02 2.693257e-14 1.744733e+03) (2.311589e+01 -7.011091e-18 -4.164611e+00)) ((-5.798004e-15 -6.616351e+02 3.291369e-15) (-1.608590e-16 2.518550e+01 6.521415e-17))
0.0167881     	((1.197941e+02 2.687053e-14 1.748760e+03) (2.326975e+01 -5.719593e-18 -4.434476e+00)) ((-5.795322e-15 -6.622931e+02 3.294486e-15) (-1.738599e-16 2.542981e+01 6.050466e-17))
0.0168952     	((1.198851e+02 2.690134e-14 1.755287e+03) (2.342374e+01 -4.746416e-18 -4.693705e+00)) ((-5.823123e-15 -6.685259e+02 3.241622e-15) (-1.847805e-16 2.566785e+01 5.567170e-17))
0.0169954     	((1.194644e+02 2.685195e-14 1.765977e+03) (2.356587e+01 -3.937629e-18 -4.940197e+00)) ((-5.780964e-15 -6.750226e+02 3.196197e-15) (-1.942163e-16 2.588799e+01 5.074227e-17))
0.0170923     	((1.194358e+02 2.687088e-14 1.768722e+03) (2.370420e+01 -3.386094e-18 -5.179741e+00)) ((-5.762174e-15 -6.787644e+02 3.168917e-15) (-2.025456e-16 2.610190e+01 4.701162e-17))
0.0171831     	((1.190688e+02 2.683271e-14 1.765911e+03) (2.382452e+01 -2.847034e-18 -5.402368e+00)) ((-5.708258e-15 -6.765852e+02 3.195437e-15) (-2.102230e-16 2.629189e+01 4.273921e-17))
0.0172837     	((1.187986e+02 2.679184e-14 1.755281e+03) (2.393527e+01 -2.309368e-18 -5.637230e+00)) ((-5.612448e-15 -6.696343e+02 3.252783e-15) (-2.182566e-16 2.647601e+01 3.985222e-17))
0.0173969     	((1.190973e+02 2.687475e-14 1.725087e+03) (2.404493e+01 -3.091535e-18 -5.882123e+00)) ((-5.371275e-15 -6.569395e+02 3.310987e-15) (-2.251298e-16 2.666293e+01 3.333041e-17))
0.0175209     	((1.196898e+02 2.467392e-14 1.285450e+03) (2.416721e+01 -5.029833e-18 -6.116085e+00)) ((2.024625e-15 -5.148967e+02 2.025072e-15) (-2.303934e-16 2.686047e+01 2.807920e-17))
0.0176448     	((1.196858e+02 2.685925e-14 1.728712e+03) (2.424822e+01 -7.061343e-18 -6.324674e+00)) ((-5.418423e-15 -6.560143e+02 3.326115e-15) (-2.336136e-16 2.700815e+01 1.793667e-17))
0.0177626     	((1.193057e+02 2.680110e-14 1.736369e+03) (2.427322e+01 -8.858518e-18 -6.489385e+00)) ((-5.258788e-15 -6.625943e+02 3.245175e-15) (-2.346952e-16 2.708310e+01 8.354826e-18))
0.0178804     	((1.192285e+02 2.679073e-14 1.727711e+03) (2.427324e+01 -1.049008e-17 -6.624814e+00)) ((-5.101837e-15 -6.584789e+02 3.257292e-15) (-2.329465e-16 2.712328e+01 -4.564749e-18))
0.0179981     	((1.184704e+02 2.667070e-14 1.735728e+03) (2.424675e+01 -1.197527e-17 -6.739567e+00)) ((-4.927123e-15 -6.633695e+02 3.203120e-15) (-2.258619e-16 2.713025e+01 -1.533561e-17))
0.0181159     	((1.178477e+02 2.657995e-14 1.738871e+03) (2.423086e+01 -1.316102e-17 -6.840760e+00)) ((-4.821265e-15 -6.651292e+02 3.181528e-15) (-2.130906e-16 2.714571e+01 -2.511584e-17))
0.0182336     	((1.182125e+02 2.669019e-14 1.736763e+03) (2.420461e+01 -1.367931e-17 -6.947078e+00)) ((-5.176635e-15 -6.649973e+02 3.210725e-15) (-1.949657e-16 2.715410e+01 -2.984392e-17))
0.0183514     	((1.187088e+02 2.660796e-14 1.693507e+03) (2.419462e+01 -1.617813e-17 -7.057156e+00)) ((-4.919107e-15 -6.447906e+02 3.236963e-15) (-1.719993e-16 2.718403e+01 -3.386284e-17))
0.0184691     	((1.194514e+02 2.673287e-14 1.694304e+03) (2.417369e+01 -1.937214e-17 -7.168993e+00)) ((-5.248778e-15 -6.427686e+02 3.300969e-15) (-1.469327e-16 2.720574e+01 -3.414981e-17))
0.0185869     	((1.196048e+02 2.686397e-14 1.706506e+03) (2.417966e+01 -2.213183e-17 -7.285061e+00)) ((-5.652042e-15 -6.454231e+02 3.382999e-15) (-1.220807e-16 2.725933e+01 -3.431649e-17))
0.0187047     	((1.195819e+02 2.687322e-14 1.699145e+03) (2.417772e+01 -2.381731e-17 -7.399564e+00)) ((-5.676402e-15 -6.402070e+02 3.437578e-15) (-9.858601e-17 2.730475e+01 -3.450319e-17))
0.0188224     	((1.195013e+02 2.688464e-14 1.701658e+03) (2.416276e+01 -2.490481e-17 -7.512032e+00)) ((-5.701589e-15 -6.412296e+02 3.457619e-15) (-7.582690e-17 2.733728e+01 -3.061543e-17))
0.0189402     	((1.196212e+02 2.692346e-14 1.712846e+03) (2.414576e+01 -2.573845e-17 -7.623693e+00)) ((-5.657216e-15 -6.529012e+02 3.350996e-15) (-5.412934e-17 2.736909e+01 -2.816367e-17))
0.0190579     	((1.193977e+02 2.690937e-14 1.704161e+03) (2.415420e+01 -2.656451e-17 -7.736553e+00)) ((-5.674137e-15 -6.440611e+02 3.465114e-15) (-3.292678e-17 2.742936e+01 -2.621898e-17))
0.0191757     	((1.198951e+02 2.695183e-14 1.693613e+03) (2.418229e+01 -2.730578e-17 -7.846784e+00)) ((-5.866116e-15 -6.362754e+02 3.513493e-15) (-1.174967e-17 2.750896e+01 -2.431254e-17))
0.0192935     	((1.197116e+02 2.678948e-14 1.680022e+03) (2.417524e+01 -2.809960e-17 -7.950839e+00)) ((-6.430363e-15 -6.269566e+02 3.391861e-15) (9.784752e-18 2.754975e+01 -1.956110e-17))
0.0194112     	((1.205121e+02 2.700598e-14 1.676969e+03) (2.417397e+01 -2.880874e-17 -8.053849e+00)) ((-6.217520e-15 -6.236475e+02 3.606000e-15) (3.139059e-17 2.759763e+01 -1.627937e-17))
0.019529      	((1.208009e+02 2.706862e-14 1.676075e+03) (2.417665e+01 -2.936375e-17 -8.152450e+00)) ((-6.251489e-15 -6.256314e+02 3.599290e-15) (5.374547e-17 2.764778e+01 -1.264882e-17))
0.0196467     	((1.204284e+02 2.701597e-14 1.668670e+03) (2.419902e+01 -2.990076e-17 -8.244400e+00)) ((-6.332271e-15 -6.206401e+02 3.619791e-15) (7.811391e-17 2.771450e+01 -4.015458e-18))
0.0197645     	((1.200474e+02 2.700816e-14 1.677356e+03) (2.419609e+01 -3.169026e-17 -8.321430e+00)) ((-6.211948e-15 -6.292696e+02 3.571250e-15) (1.050873e-16 2.774690e+01 3.320829e-18))
0.0198822     	((1.167108e+02 2.341423e-14 1.274371e+03) (2.422159e+01 -3.366481e-17 -8.381752e+00)) ((1.455354e-14 -4.997019e+02 1.278495e-15) (1.343910e-16 2.780092e+01 1.678373e-18))
0.02          	((1.200165e+02 2.678167e-14 1.646084e+03) (2.419516e+01 -3.451882e-17 -8.421722e+00)) ((-4.449910e-15 -6.243038e+02 3.370902e-15) (1.663417e-16 2.778974e+01 1.221694e-17))
0.0201183     	((1.203112e+02 2.715788e-14 1.669541e+03) (2.417683e+01 -3.507929e-17 -8.441464e+00)) ((-6.647505e-15 -6.270621e+02 3.705207e-15) (2.010071e-16 2.777717e+01 2.874181e-17))
0.020236      	((1.201719e+02 2.717488e-14 1.663922e+03) (2.414052e+01 -3.504669e-17 -8.446208e+00)) ((-6.892950e-15 -6.239116e+02 3.756291e-15) (2.349497e-16 2.773855e+01 4.913323e-17))
0.0203522     	((1.201775e+02 2.722763e-14 1.663927e+03) (2.407686e+01 -3.409139e-17 -8.439141e+00)) ((-7.308769e-15 -6.233088e+02 3.810253e-15) (2.653914e-16 2.766436e+01 7.199464e-17))
0.0204692     	((1.202870e+02 2.724315e-14 1.660969e+03) (2.403618e+01 -3.268214e-17 -8.437660e+00)) ((-7.226190e-15 -6.224500e+02 3.813469e-15) (2.900456e-16 2.761556e+01 9.160082e-17))
0.0205861     	((1.203119e+02 2.718778e-14 1.664225e+03) (2.401364e+01 -3.141555e-17 -8.454625e+00)) ((-6.513602e-15 -6.251905e+02 3.743717e-15) (3.082267e-16 2.759247e+01 1.104240e-16))
0.0207031     	((1.201660e+02 2.713548e-14 1.672304e+03) (2.399182e+01 -3.149039e-17 -8.481868e+00)) ((-6.122332e-15 -6.305444e+02 3.678501e-15) (3.237872e-16 2.757281e+01 1.215134e-16))
0.0208193     	((1.202989e+02 2.715299e-14 1.667202e+03) (2.397637e+01 -3.284414e-17 -8.517392e+00)) ((-6.065313e-15 -6.244988e+02 3.759733e-15) (3.389421e-16 2.756304e+01 1.336799e-16))
0.0209356     	((1.199519e+02 2.708033e-14 1.674623e+03) (2.397114e+01 -3.452797e-17 -8.559676e+00)) ((-5.814438e-15 -6.310534e+02 3.674211e-15) (3.529068e-16 2.756623e+01 1.401323e-16))
0.0210511     	((1.200723e+02 2.710447e-14 1.666474e+03) (2.396713e+01 -3.738107e-17 -8.605825e+00)) ((-5.816634e-15 -6.248352e+02 3.740597e-15) (3.671899e-16 2.757153e+01 1.433708e-16))
0.0211667     	((1.201221e+02 2.711062e-14 1.668956e+03) (2.397141e+01 -4.033932e-17 -8.654950e+00)) ((-5.835502e-15 -6.270003e+02 3.723428e-15) (3.812038e-16 2.758626e+01 1.470510e-16))
0.0212822     	((1.198449e+02 2.707428e-14 1.668459e+03) (2.398949e+01 -4.283038e-17 -8.707829e+00)) ((-5.688750e-15 -6.274424e+02 3.709875e-15) (3.945030e-16 2.761671e+01 1.533531e-16))
0.021397      	((1.199334e+02 2.709359e-14 1.672066e+03) (2.398977e+01 -4.505048e-17 -8.759952e+00)) ((-5.750402e-15 -6.301644e+02 3.693326e-15) (4.066663e-16 2.762743e+01 1.553674e-16))
0.0215119     	((1.199279e+02 2.711530e-14 1.665848e+03) (2.399747e+01 -4.701833e-17 -8.814255e+00)) ((-5.788982e-15 -6.243940e+02 3.769803e-15) (4.184059e-16 2.764667e+01 1.587331e-16))
0.0216267     	((1.201867e+02 2.713674e-14 1.655044e+03) (2.401708e+01 -4.880507e-17 -8.869587e+00)) ((-5.653629e-15 -6.198484e+02 3.776294e-15) (4.292217e-16 2.767860e+01 1.579064e-16))
0.0217415     	((1.201062e+02 2.713134e-14 1.662363e+03) (2.403155e+01 -5.043074e-17 -8.923500e+00)) ((-5.641762e-15 -6.237174e+02 3.755070e-15) (4.398709e-16 2.770404e+01 1.594931e-16))
0.0218557     	((1.196163e+02 2.707933e-14 1.671303e+03) (2.404565e+01 -5.198514e-17 -8.974472e+00)) ((-5.508187e-15 -6.301855e+02 3.697954e-15) (4.504667e-16 2.772753e+01 1.638297e-16))
0.0219698     	((1.198670e+02 2.713349e-14 1.658806e+03) (2.406610e+01 -5.384566e-17 -9.021856e+00)) ((-5.578525e-15 -6.210732e+02 3.790160e-15) (4.602271e-16 2.775557e+01 1.596062e-16))
0.0220839     	((1.199400e+02 2.710925e-14 1.654558e+03) (2.408260e+01 -5.384510e-17 -9.060594e+00)) ((-5.385828e-15 -6.221388e+02 3.719665e-15) (4.676400e-16 2.777514e+01 1.577592e-16))
0.0221973     	((1.197037e+02 2.713070e-14 1.653225e+03) (2.408904e+01 -5.279124e-17 -9.085655e+00)) ((-5.545352e-15 -6.193295e+02 3.783003e-15) (4.736282e-16 2.777752e+01 1.605863e-16))
0.0223107     	((1.192261e+02 2.721843e-14 1.624942e+03) (2.409832e+01 -5.151994e-17 -9.095083e+00)) ((-7.433272e-15 -6.090745e+02 3.896353e-15) (4.783693e-16 2.777563e+01 1.585090e-16))
0.0224241     	((1.131492e+02 2.777531e-14 1.263269e+03) (2.410362e+01 -4.990561e-17 -9.083825e+00)) ((-3.022101e-14 -4.873715e+02 4.921861e-15) (4.818482e-16 2.775943e+01 1.590767e-16))
0.0225375     	((1.193703e+02 2.722269e-14 1.659084e+03) (2.409601e+01 -4.827610e-17 -9.058883e+00)) ((-5.678769e-15 -6.239460e+02 3.784356e-15) (4.834398e-16 2.772312e+01 1.600040e-16))
0.0226501     	((1.192413e+02 2.721311e-14 1.657325e+03) (2.406480e+01 -4.631345e-17 -9.022854e+00)) ((-5.626166e-15 -6.240764e+02 3.766697e-15) (4.824938e-16 2.765620e+01 1.550696e-16))
0.0227628     	((1.194614e+02 2.729579e-14 1.645174e+03) (2.402878e+01 -4.403304e-17 -8.976081e+00)) ((-5.750316e-15 -6.155904e+02 3.861491e-15) (4.797831e-16 2.757852e+01 1.557943e-16))
0.0228755     	((1.192095e+02 2.717461e-14 1.658029e+03) (2.401814e+01 -4.248283e-17 -8.945177e+00)) ((-5.613680e-15 -6.243162e+02 3.748312e-15) (4.763625e-16 2.753399e+01 1.542350e-16))
0.0229881     	((1.194946e+02 2.715548e-14 1.648150e+03) (2.401398e+01 -4.161696e-17 -8.927091e+00)) ((-5.584174e-15 -6.162770e+02 3.807579e-15) (4.724856e-16 2.750117e+01 1.498558e-16))
0.0231        	((1.196544e+02 2.713633e-14 1.644165e+03) (2.401903e+01 -4.086143e-17 -8.919003e+00)) ((-5.563290e-15 -6.136681e+02 3.812906e-15) (4.684074e-16 2.748228e+01 1.461384e-16))
0.023212      	((1.195367e+02 2.709151e-14 1.646820e+03) (2.402503e+01 -3.935124e-17 -8.917162e+00)) ((-5.523089e-15 -6.161163e+02 3.770077e-15) (4.627648e-16 2.746673e+01 1.370046e-16))
0.0233239     	((1.187182e+02 2.713563e-14 1.603028e+03) (2.404213e+01 -3.864673e-17 -8.920986e+00)) ((-8.163593e-15 -6.005183e+02 3.898537e-15) (4.584552e-16 2.746543e+01 1.300837e-16))
0.0234358     	((1.194280e+02 2.707965e-14 1.638097e+03) (2.406217e+01 -3.832088e-17 -8.930523e+00)) ((-5.876839e-15 -6.127644e+02 3.776737e-15) (4.547417e-16 2.746971e+01 1.270214e-16))
0.023547      	((1.194170e+02 2.707105e-14 1.640801e+03) (2.409114e+01 -3.883656e-17 -8.945793e+00)) ((-5.684164e-15 -6.132054e+02 3.773221e-15) (4.516171e-16 2.748633e+01 1.204166e-16))
0.0236581     	((1.191287e+02 2.704026e-14 1.639935e+03) (2.411745e+01 -3.932655e-17 -8.963632e+00)) ((-5.745490e-15 -6.135739e+02 3.760151e-15) (4.485523e-16 2.750151e+01 1.131366e-16))