# Forces      
# CofR        : (0.000000e+00 0.000000e+00 -1.000000e+00)
# Time        forces(pressure viscous)	moments(pressure viscous)
0             	((1.136868e-13 6.764460e-14 1.136868e-13) (1.253029e+01 -8.120567e-18 2.304667e+00)) ((-2.248934e-14 0.000000e+00 2.716866e-14) (-8.917212e-18 1.139670e+01 8.792294e-17))
1.19976e-05   	((1.751994e+05 6.359067e-13 1.726098e+06) (1.271971e+01 -8.085197e-18 2.009519e+00)) ((-9.522289e-12 -4.800298e+05 -5.988388e-12) (-1.043309e-17 1.168791e+01 9.303859e-17))
2.63878e-05   	((2.047421e+04 -2.125836e-13 2.995383e+05) (1.279552e+01 -8.245170e-18 1.910631e+00)) ((-1.071705e-12 -1.044719e+05 -1.087921e-12) (-1.056323e-17 1.179685e+01 9.387944e-17))
4.36511e-05   	((1.221054e+04 -7.264161e-14 1.686559e+05) (1.289630e+01 -8.123678e-18 1.853341e+00)) ((-7.031804e-13 -5.754234e+04 -5.925326e-13) (-1.034414e-17 1.191807e+01 9.505291e-17))
6.43527e-05   	((8.072396e+03 -3.564055e-14 1.135931e+05) (1.303619e+01 -7.836378e-18 1.813055e+00)) ((-5.107339e-13 -3.908475e+04 -3.889497e-13) (-1.033826e-17 1.207443e+01 9.578845e-17))
8.91792e-05   	((6.391491e+03 -2.930529e-14 7.954026e+04) (1.322092e+01 -7.455329e-18 1.785234e+00)) ((-3.189500e-13 -2.706325e+04 -2.699980e-13) (-1.080234e-17 1.227331e+01 9.675192e-17))
0.000118941   	((4.604401e+03 1.452896e-15 5.835127e+04) (1.346903e+01 -6.971064e-18 1.750831e+00)) ((-2.754503e-13 -1.966116e+04 -1.934430e-13) (-1.067875e-17 1.253617e+01 9.771017e-17))
0.000154634   	((3.427794e+03 1.091274e-14 4.335383e+04) (1.380415e+01 -6.398505e-18 1.723298e+00)) ((-2.109643e-13 -1.452816e+04 -1.397997e-13) (-1.072667e-17 1.288331e+01 9.906171e-17))
0.000197405   	((2.884689e+03 1.445414e-14 3.349023e+04) (1.427328e+01 -5.736829e-18 1.728727e+00)) ((-1.566856e-13 -1.109422e+04 -1.071739e-13) (-1.147892e-17 1.333428e+01 1.014258e-16))
0.000248707   	((1.274599e+03 -6.234228e-14 3.768604e+04) (1.491539e+01 -5.039483e-18 1.706437e+00)) ((-5.209465e-15 -1.871247e+04 -1.407105e-13) (-1.153005e-17 1.399676e+01 1.067748e-16))
0.000310237   	((1.816964e+03 1.066492e-14 2.310098e+04) (1.587835e+01 -4.173417e-18 1.713194e+00)) ((-8.759656e-14 -8.427601e+03 -7.364789e-14) (-1.176814e-17 1.495412e+01 1.137475e-16))
0.000383982   	((1.691220e+03 2.305630e-14 1.721932e+04) (1.724567e+01 -3.245735e-18 1.760963e+00)) ((-8.037933e-14 -5.555199e+03 -5.070211e-14) (-1.229844e-17 1.629769e+01 1.233230e-16))
0.000472342   	((1.502034e+03 2.236584e-14 1.386322e+04) (1.893496e+01 -2.535072e-18 1.868979e+00)) ((-4.832416e-14 -4.428820e+03 -3.852572e-14) (-1.329313e-17 1.794990e+01 1.342183e-16))
0.000577897   	((1.227817e+03 2.562000e-14 1.179563e+04) (2.072331e+01 -2.231063e-18 1.970443e+00)) ((-5.478130e-14 -3.720639e+03 -3.142738e-14) (-1.315091e-17 1.970429e+01 1.456180e-16))
0.000704014   	((1.203781e+03 2.820748e-14 1.039835e+04) (2.254913e+01 -2.371583e-18 2.087812e+00)) ((-4.091993e-14 -3.217707e+03 -2.648878e-14) (-1.329101e-17 2.149299e+01 1.563858e-16))
0.000854764   	((1.001192e+03 2.755114e-14 8.912055e+03) (2.434610e+01 -2.673066e-18 2.202918e+00)) ((-3.546249e-14 -2.799630e+03 -2.126274e-14) (-1.341726e-17 2.325357e+01 1.665728e-16))
0.00103538    	((7.980424e+02 2.773954e-14 7.408701e+03) (2.605382e+01 -2.615939e-18 2.286737e+00)) ((-3.398888e-14 -2.311484e+03 -1.570300e-14) (-1.318062e-17 2.493480e+01 1.763225e-16))
0.00124847    	((7.741674e+02 3.128385e-14 6.451396e+03) (2.754917e+01 -2.311525e-18 2.374699e+00)) ((-2.609764e-14 -2.006179e+03 -1.202309e-14) (-1.378441e-17 2.640951e+01 1.859534e-16))
0.0014952     	((6.678898e+02 2.827374e-14 5.916267e+03) (2.877270e+01 -2.317896e-18 2.406617e+00)) ((-2.564570e-14 -1.836155e+03 -1.065842e-14) (-1.293122e-17 2.763269e+01 1.934317e-16))
0.00177557    	((6.704104e+02 3.100740e-14 5.082615e+03) (2.966341e+01 -1.936707e-18 2.418587e+00)) ((-1.542194e-14 -1.571731e+03 -7.442926e-15) (-1.344064e-17 2.853658e+01 1.969757e-16))
0.0019475     	((9.190762e+02 2.742269e-14 6.229839e+03) (3.011123e+01 -1.903480e-18 2.393205e+00)) ((-1.432597e-14 -1.908273e+03 -1.349956e-14) (-1.308243e-17 2.900474e+01 1.982270e-16))
0.00211781    	((1.225445e+03 4.008432e-14 6.148756e+03) (3.046322e+01 -2.107690e-18 2.367429e+00)) ((9.571564e-16 -1.818329e+03 -1.210837e-14) (-1.384390e-17 2.937997e+01 1.920776e-16))
0.00228493    	((4.545683e+03 4.638669e-14 1.147353e+04) (3.098162e+01 -2.220023e-18 2.302099e+00)) ((7.258887e-14 -2.010790e+03 -4.524720e-14) (-1.542964e-17 2.992841e+01 1.916542e-16))
0.0024431     	((1.355709e+03 2.768266e-14 7.861782e+03) (3.124447e+01 -2.341658e-18 2.188230e+00)) ((3.295980e-15 -2.553672e+03 -2.169978e-14) (-2.058895e-17 3.023545e+01 1.870198e-16))
0.00259445    	((7.776267e+02 4.724152e-14 6.414256e+03) (3.137537e+01 -2.639964e-18 2.202062e+00)) ((-4.332637e-14 -2.715923e+03 -1.393154e-14) (-1.239904e-17 3.038344e+01 1.888179e-16))
0.0027395     	((4.144762e+02 1.435507e-14 7.497919e+03) (3.142200e+01 -3.269972e-18 2.140967e+00)) ((-4.757756e-15 -3.276350e+03 -2.014972e-14) (-1.002548e-17 3.046128e+01 1.903088e-16))
0.00287758    	((3.107895e+02 6.544385e-15 8.403439e+03) (3.143799e+01 -3.729813e-18 2.088394e+00)) ((6.177612e-15 -4.014756e+03 -2.564698e-14) (-8.520274e-18 3.050642e+01 1.932441e-16))
0.00300442    	((-4.481408e+01 -5.542053e-14 1.773035e+04) (3.143321e+01 -2.038873e-18 2.108333e+00)) ((1.046518e-13 -1.046514e+04 -7.761697e-14) (-1.160377e-17 3.051365e+01 1.955718e-16))
0.00312082    	((7.833442e+02 5.317849e-14 3.630901e+03) (3.142229e+01 -2.272702e-18 2.066738e+00)) ((-3.334751e-14 -1.215138e+03 -1.850971e-15) (-1.138993e-17 3.052676e+01 1.946853e-16))
0.00321783    	((4.421255e+02 2.916720e-14 4.589775e+03) (3.138934e+01 -2.549854e-18 2.017599e+00)) ((-1.791087e-14 -1.620560e+03 -5.982296e-15) (-1.207200e-17 3.051672e+01 1.952823e-16))
0.00333357    	((4.310467e+02 2.517240e-14 4.318862e+03) (3.113258e+01 -2.048328e-18 2.012081e+00)) ((-8.441082e-15 -1.938256e+03 -8.744858e-15) (-9.435984e-18 3.025623e+01 2.132693e-16))
0.00347246    	((4.307418e+02 2.729863e-14 3.672568e+03) (3.104403e+01 -8.655455e-19 2.028259e+00)) ((-9.188760e-15 -1.582778e+03 -6.076826e-15) (-6.654959e-18 3.015987e+01 2.088889e-16))
0.00363773    	((2.470168e+02 2.600627e-14 3.697260e+03) (3.083214e+01 -7.081022e-19 1.985851e+00)) ((-1.186284e-14 -1.440519e+03 -3.352107e-15) (-6.279398e-18 2.996833e+01 2.129127e-16))
0.00383487    	((2.307239e+02 2.802370e-14 3.100854e+03) (3.057683e+01 -5.930226e-19 1.931674e+00)) ((-1.431581e-14 -1.098682e+03 -6.069104e-16) (-6.225465e-18 2.973999e+01 2.174844e-16))
0.00406255    	((2.359510e+02 3.066782e-14 2.864184e+03) (3.025050e+01 -2.246877e-19 1.945786e+00)) ((-1.932869e-14 -1.066059e+03 -9.193612e-17) (-3.822148e-18 2.942175e+01 2.298901e-16))
0.00420743    	((3.644579e+02 2.841045e-14 3.565598e+03) (3.018247e+01 -7.117541e-20 1.937197e+00)) ((-1.356868e-14 -1.731081e+03 -6.694785e-15) (-2.661198e-18 2.936437e+01 2.274353e-16))
0.00435784    	((2.374627e+02 2.801912e-14 2.975506e+03) (2.998037e+01 -3.948232e-20 1.907277e+00)) ((-1.319208e-14 -1.126054e+03 -9.592201e-16) (-1.698693e-18 2.917730e+01 2.361409e-16))
0.00450824    	((1.302360e+02 1.737809e-14 4.646523e+03) (2.978667e+01 1.589702e-20 1.865931e+00)) ((-9.568643e-16 -2.230712e+03 -9.482191e-15) (-1.036218e-18 2.900376e+01 2.435048e-16))
0.00468838    	((1.735085e+02 2.723196e-14 2.840969e+03) (2.977617e+01 6.015993e-19 1.847052e+00)) ((-1.046763e-14 -1.218827e+03 -1.063430e-15) (-1.110599e-18 2.900652e+01 2.261502e-16))
0.00489529    	((2.127171e+02 3.088034e-14 2.166780e+03) (2.948560e+01 6.075690e-19 1.836508e+00)) ((-1.361866e-14 -8.749737e+02 1.247984e-15) (-4.386926e-19 2.872798e+01 2.389013e-16))
0.0051313     	((1.645698e+02 2.742275e-14 2.520409e+03) (2.914609e+01 6.374774e-19 1.800281e+00)) ((-1.115595e-14 -9.177383e+02 1.187022e-15) (3.703847e-19 2.840897e+01 2.471449e-16))
0.00540665    	((1.641804e+02 2.780528e-14 2.368779e+03) (2.877070e+01 7.341276e-19 1.757448e+00)) ((-1.090863e-14 -8.439983e+02 1.793305e-15) (9.291064e-19 2.805759e+01 2.518419e-16))
0.0057239     	((1.557268e+02 2.758056e-14 2.284079e+03) (2.820546e+01 7.472058e-19 1.729088e+00)) ((-1.013448e-14 -8.184365e+02 2.032724e-15) (1.279699e-18 2.750520e+01 2.626147e-16))
0.00608995    	((1.614929e+02 2.611535e-14 2.075063e+03) (2.835550e+01 1.245582e-18 1.657575e+00)) ((-2.177223e-15 -7.673928e+02 1.786430e-15) (-5.232276e-18 2.771535e+01 1.921603e-16))
0.00649907    	((1.713492e+02 2.902947e-14 1.919085e+03) (2.790901e+01 1.369461e-18 1.608160e+00)) ((-9.352409e-15 -7.143728e+02 2.688791e-15) (-5.130887e-18 2.729464e+01 1.849723e-16))
0.00693458    	((1.368894e+02 2.689123e-14 2.188251e+03) (2.725368e+01 1.336624e-18 1.558464e+00)) ((-8.720863e-15 -8.133088e+02 2.177939e-15) (-3.791600e-18 2.665867e+01 1.945173e-16))
0.00731886    	((1.365906e+02 2.592636e-14 2.083512e+03) (2.657077e+01 1.167436e-18 1.529798e+00)) ((-7.459462e-15 -7.751946e+02 2.038028e-15) (-2.028268e-18 2.597693e+01 2.118636e-16))
0.00774157    	((1.394239e+02 2.696366e-14 1.993052e+03) (2.671155e+01 2.514301e-18 1.325270e+00)) ((-8.315223e-15 -7.151844e+02 2.749846e-15) (-7.277200e-18 2.621989e+01 1.646283e-16))
0.00812464    	((1.299885e+02 2.619350e-14 2.097072e+03) (2.659465e+01 3.444334e-18 1.118690e+00)) ((-6.671170e-15 -7.997450e+02 2.166619e-15) (1.427538e-18 2.619023e+01 1.735889e-16))
0.0083828     	((1.289924e+02 2.591650e-14 2.113427e+03) (2.665796e+01 4.379723e-18 9.801663e-01)) ((-6.085659e-15 -8.147290e+02 2.008618e-15) (1.450333e-17 2.632230e+01 1.952591e-16))
0.00864096    	((1.325408e+02 2.683843e-14 2.038927e+03) (2.672424e+01 4.111943e-18 7.687698e-01)) ((-7.678042e-15 -7.604094e+02 2.604148e-15) (2.851994e-17 2.648112e+01 2.190707e-16))
0.00884749    	((1.303034e+02 2.659586e-14 2.075310e+03) (2.679141e+01 3.496252e-18 5.694844e-01)) ((-8.081347e-15 -7.878480e+02 2.386897e-15) (4.123859e-17 2.663457e+01 2.328518e-16))
0.00901907    	((1.324492e+02 2.518066e-14 1.833700e+03) (2.683890e+01 2.902850e-18 3.821453e-01)) ((-2.829590e-14 -7.108986e+02 2.086118e-15) (5.365505e-17 2.676296e+01 2.516510e-16))
0.00917158    	((1.301712e+02 2.660568e-14 2.058441e+03) (2.685248e+01 2.864553e-18 1.885934e-01)) ((-6.918386e-15 -7.805719e+02 2.442311e-15) (6.612073e-17 2.685646e+01 2.737268e-16))
0.00931406    	((1.255924e+02 2.625553e-14 2.110820e+03) (2.715778e+01 3.875184e-18 -2.126401e-02)) ((-6.393219e-15 -8.225588e+02 2.147809e-15) (7.508152e-17 2.725878e+01 2.638755e-16))
0.00944932    	((1.338220e+02 2.600749e-14 1.907632e+03) (2.717693e+01 4.726639e-18 -1.734239e-01)) ((-4.557615e-15 -7.314334e+02 2.313681e-15) (8.503186e-17 2.734274e+01 2.769355e-16))
0.00958121    	((1.442523e+02 2.508685e-14 1.593839e+03) (2.712572e+01 5.599887e-18 -2.875578e-01)) ((-1.439432e-14 -6.472585e+02 1.927649e-15) (9.414268e-17 2.733966e+01 2.920133e-16))
0.00971309    	((1.306260e+02 2.750761e-14 1.979619e+03) (2.701230e+01 7.254382e-18 -3.764167e-01)) ((-9.763745e-15 -7.576367e+02 2.629519e-15) (1.006098e-16 2.726172e+01 3.060485e-16))
0.00984669    	((1.285601e+02 2.747684e-14 2.000906e+03) (2.704348e+01 9.653104e-18 -4.562576e-01)) ((-1.007047e-14 -7.740492e+02 2.548331e-15) (1.032322e-16 2.733121e+01 3.033269e-16))
0.00998771    	((1.351480e+02 3.033874e-14 1.891691e+03) (2.691540e+01 1.061551e-17 -5.275048e-01)) ((-8.906783e-15 -7.327150e+02 3.475377e-15) (1.069146e-16 2.723123e+01 3.133829e-16))
0.0101394     	((1.340512e+02 2.801529e-14 1.857667e+03) (2.684390e+01 9.966178e-18 -6.136700e-01)) ((-8.542838e-15 -7.248593e+02 2.871733e-15) (1.116044e-16 2.719608e+01 3.165249e-16))
0.0102823     	((1.353073e+02 2.853053e-14 1.832335e+03) (2.679611e+01 7.576806e-18 -7.018059e-01)) ((-8.665633e-15 -7.268262e+02 2.901484e-15) (1.177381e-16 2.718498e+01 3.163396e-16))
0.0104192     	((1.272107e+02 2.725301e-14 1.953343e+03) (2.673179e+01 4.824857e-18 -8.006311e-01)) ((-6.853826e-15 -7.493029e+02 2.855971e-15) (1.248595e-16 2.716080e+01 3.196571e-16))
0.0105487     	((1.265685e+02 2.706255e-14 1.952361e+03) (2.670583e+01 2.437549e-18 -9.084852e-01)) ((-7.014263e-15 -7.525320e+02 2.796615e-15) (1.319223e-16 2.718109e+01 3.187916e-16))
0.0106714     	((1.353204e+02 2.950141e-14 1.865496e+03) (2.663030e+01 2.461766e-19 -1.014285e+00)) ((-7.275324e-15 -7.298532e+02 3.350571e-15) (1.387520e-16 2.714877e+01 3.210409e-16))
0.0107895     	((1.258230e+02 2.714020e-14 1.966843e+03) (2.658987e+01 -1.739468e-18 -1.123214e+00)) ((-6.690045e-15 -7.630846e+02 2.754932e-15) (1.450520e-16 2.715332e+01 3.198467e-16))
0.0109046     	((1.262768e+02 2.731908e-14 1.933428e+03) (2.656162e+01 -2.448491e-18 -1.223181e+00)) ((-6.893026e-15 -7.451312e+02 2.910274e-15) (1.491765e-16 2.716705e+01 3.182392e-16))
0.0110197     	((1.364435e+02 3.463996e-14 1.378211e+03) (2.657888e+01 -2.408754e-18 -1.312417e+00)) ((-2.178735e-14 -5.803204e+02 4.999502e-15) (1.507169e-16 2.722403e+01 3.210996e-16))
0.0111334     	((1.261974e+02 2.705201e-14 1.953788e+03) (2.654369e+01 -2.988789e-18 -1.387681e+00)) ((-6.689182e-15 -7.578255e+02 2.735088e-15) (1.509909e-16 2.721909e+01 3.182032e-16))
0.0112471     	((1.253009e+02 2.710937e-14 1.934741e+03) (2.648395e+01 -3.747164e-18 -1.444303e+00)) ((-6.498286e-15 -7.477127e+02 2.858218e-15) (1.496139e-16 2.718111e+01 3.139014e-16))
0.0113623     	((1.273020e+02 2.789859e-14 1.865066e+03) (2.640270e+01 -4.528407e-18 -1.476572e+00)) ((-7.300182e-15 -7.221267e+02 3.166170e-15) (1.461434e-16 2.711176e+01 3.077855e-16))
0.0114774     	((1.345009e+02 2.883237e-14 1.809907e+03) (2.629227e+01 -5.460104e-18 -1.488185e+00)) ((-5.948608e-15 -7.102917e+02 3.454662e-15) (1.411803e-16 2.700439e+01 2.991454e-16))
0.0115958     	((1.277981e+02 2.770932e-14 1.874881e+03) (2.613232e+01 -6.513781e-18 -1.478760e+00)) ((-6.345815e-15 -7.271823e+02 3.117275e-15) (1.352972e-16 2.683422e+01 2.934213e-16))
0.0117194     	((1.258389e+02 2.735130e-14 1.888429e+03) (2.591446e+01 -7.665264e-18 -1.467637e+00)) ((-6.368719e-15 -7.319772e+02 3.019154e-15) (1.299902e-16 2.659922e+01 2.931470e-16))
0.0118508     	((1.249364e+02 2.720484e-14 1.878154e+03) (2.567232e+01 -8.385073e-18 -1.465267e+00)) ((-6.247434e-15 -7.246139e+02 3.071555e-15) (1.242952e-16 2.634174e+01 2.950341e-16))
0.0119867     	((1.252106e+02 2.716713e-14 1.871256e+03) (2.538481e+01 -8.947417e-18 -1.470900e+00)) ((-6.312145e-15 -7.215564e+02 3.068998e-15) (1.187496e-16 2.604037e+01 3.008519e-16))
0.012118      	((1.251587e+02 2.710468e-14 1.876120e+03) (2.510624e+01 -9.905709e-18 -1.486774e+00)) ((-6.349619e-15 -7.243394e+02 3.029987e-15) (1.138382e-16 2.575553e+01 3.049845e-16))
0.0122472     	((1.256088e+02 2.710652e-14 1.874994e+03) (2.488237e+01 -1.106548e-17 -1.518586e+00)) ((-6.446200e-15 -7.248516e+02 3.004944e-15) (1.092021e-16 2.553606e+01 3.028286e-16))
0.0123764     	((1.253246e+02 2.711543e-14 1.858150e+03) (2.470058e+01 -1.257997e-17 -1.560568e+00)) ((-6.274065e-15 -7.143483e+02 3.114908e-15) (1.054767e-16 2.536511e+01 2.958574e-16))
0.0125079     	((1.296038e+02 2.770678e-14 1.799024e+03) (2.455509e+01 -1.435577e-17 -1.612279e+00)) ((-5.593149e-15 -6.929549e+02 3.419920e-15) (1.027876e-16 2.523489e+01 2.846409e-16))
0.0126441     	((1.302036e+02 2.786241e-14 1.785213e+03) (2.444981e+01 -1.627700e-17 -1.675079e+00)) ((-5.454275e-15 -6.873719e+02 3.497499e-15) (1.009590e-16 2.514954e+01 2.704681e-16))
0.0127573     	((1.261468e+02 2.739182e-14 1.847770e+03) (2.437940e+01 -1.767224e-17 -1.729420e+00)) ((-5.959671e-15 -7.149438e+02 3.176767e-15) (9.948878e-17 2.509715e+01 2.579775e-16))
0.0128704     	((1.253477e+02 2.753439e-14 1.830908e+03) (2.431654e+01 -1.851697e-17 -1.780238e+00)) ((-6.240346e-15 -7.073240e+02 3.252957e-15) (9.729359e-17 2.505137e+01 2.453319e-16))
0.0129836     	((1.331249e+02 3.748044e-14 1.301840e+03) (2.430132e+01 -1.918606e-17 -1.823991e+00)) ((-1.112412e-14 -5.452317e+02 6.191378e-15) (9.430665e-17 2.505326e+01 2.366292e-16))
0.0130968     	((1.259883e+02 2.704234e-14 1.859919e+03) (2.425224e+01 -1.978424e-17 -1.856735e+00)) ((-5.927455e-15 -7.207640e+02 3.036779e-15) (9.041626e-17 2.501575e+01 2.232842e-16))
0.0132099     	((1.251132e+02 2.706677e-14 1.830076e+03) (2.418255e+01 -2.027820e-17 -1.868834e+00)) ((-5.847616e-15 -7.021616e+02 3.205490e-15) (8.535863e-17 2.495144e+01 2.087581e-16))
0.0133231     	((1.257034e+02 2.722943e-14 1.807880e+03) (2.408584e+01 -2.074590e-17 -1.862602e+00)) ((-6.032664e-15 -6.928589e+02 3.273864e-15) (7.925809e-17 2.485358e+01 1.931030e-16))
0.0134382     	((1.253018e+02 2.716224e-14 1.807623e+03) (2.396462e+01 -2.129272e-17 -1.848996e+00)) ((-5.813820e-15 -6.924455e+02 3.271320e-15) (7.300348e-17 2.472902e+01 1.763890e-16))
0.0135554     	((1.252132e+02 2.775314e-14 1.770317e+03) (2.383372e+01 -2.194350e-17 -1.834827e+00)) ((-5.899592e-15 -6.805708e+02 3.472356e-15) (6.699262e-17 2.459557e+01 1.600112e-16))
0.013677      	((1.255682e+02 2.757078e-14 1.781775e+03) (2.371309e+01 -2.267774e-17 -1.844837e+00)) ((-5.943657e-15 -6.846221e+02 3.404861e-15) (6.286635e-17 2.448389e+01 1.442601e-16))
0.0138035     	((1.253589e+02 2.730758e-14 1.794198e+03) (2.359533e+01 -2.390254e-17 -1.878273e+00)) ((-6.012068e-15 -6.880295e+02 3.340244e-15) (6.106822e-17 2.438951e+01 1.294552e-16))
0.0139274     	((1.254418e+02 2.734813e-14 1.779615e+03) (2.347881e+01 -2.470013e-17 -1.934233e+00)) ((-6.084325e-15 -6.785013e+02 3.435156e-15) (5.984078e-17 2.430871e+01 1.160495e-16))
0.0140488     	((1.252442e+02 2.729587e-14 1.807102e+03) (2.336052e+01 -2.491316e-17 -2.009030e+00)) ((-6.059269e-15 -6.989373e+02 3.270290e-15) (5.849689e-17 2.423756e+01 1.037696e-16))
0.0141703     	((1.243673e+02 2.722902e-14 1.792154e+03) (2.324152e+01 -2.427045e-17 -2.101254e+00)) ((-5.932850e-15 -6.879397e+02 3.379532e-15) (5.634729e-17 2.417812e+01 9.235714e-17))
0.0142943     	((1.244955e+02 2.727267e-14 1.781658e+03) (2.311394e+01 -2.353826e-17 -2.213410e+00)) ((-5.987541e-15 -6.832917e+02 3.414882e-15) (5.385052e-17 2.412567e+01 8.131442e-17))
0.0144157     	((1.242434e+02 2.724287e-14 1.785442e+03) (2.302350e+01 -2.276350e-17 -2.348591e+00)) ((-6.018249e-15 -6.853263e+02 3.392346e-15) (5.080150e-17 2.412849e+01 6.895682e-17))
0.0145345     	((1.240335e+02 2.722787e-14 1.789981e+03) (2.290901e+01 -2.209737e-17 -2.492422e+00)) ((-6.063063e-15 -6.888477e+02 3.357735e-15) (4.813405e-17 2.411703e+01 6.148175e-17))
0.0146508     	((1.240071e+02 2.723277e-14 1.785995e+03) (2.279050e+01 -2.145288e-17 -2.649510e+00)) ((-6.117615e-15 -6.863793e+02 3.372202e-15) (4.492119e-17 2.411318e+01 5.200489e-17))
0.0147646     	((1.236786e+02 2.719393e-14 1.783792e+03) (2.267557e+01 -2.083342e-17 -2.821856e+00)) ((-6.076655e-15 -6.842201e+02 3.382709e-15) (4.163978e-17 2.412306e+01 4.389560e-17))
0.0148785     	((1.248605e+02 2.871406e-14 1.629475e+03) (2.258392e+01 -1.985425e-17 -3.002212e+00)) ((-3.053847e-15 -6.385226e+02 3.663629e-15) (3.765185e-17 2.416789e+01 3.638274e-17))
0.0149923     	((1.267479e+02 3.117183e-14 1.380831e+03) (2.253241e+01 -1.935353e-17 -3.185999e+00)) ((1.214549e-15 -5.597697e+02 4.201691e-15) (3.346323e-17 2.426380e+01 3.014356e-17))
0.0151035     	((1.240937e+02 2.737517e-14 1.757105e+03) (2.244445e+01 -1.894713e-17 -3.370225e+00)) ((-5.912825e-15 -6.743327e+02 3.432476e-15) (2.816026e-17 2.432757e+01 2.442122e-17))
0.0152148     	((1.234823e+02 2.729085e-14 1.760550e+03) (2.236045e+01 -1.834727e-17 -3.550026e+00)) ((-5.817953e-15 -6.779731e+02 3.388133e-15) (2.130872e-17 2.439991e+01 1.702319e-17))
0.0153236     	((1.228876e+02 2.714032e-14 1.787875e+03) (2.225378e+01 -1.764742e-17 -3.717706e+00)) ((-5.772563e-15 -6.958607e+02 3.214545e-15) (1.393583e-17 2.444437e+01 1.360961e-17))
0.0154323     	((1.226987e+02 2.705760e-14 1.766819e+03) (2.214345e+01 -1.743630e-17 -3.870357e+00)) ((-5.737277e-15 -6.799632e+02 3.321712e-15) (5.703707e-18 2.448091e+01 6.707614e-18))
0.0155411     	((1.228725e+02 2.704798e-14 1.750311e+03) (2.202648e+01 -1.689498e-17 -4.007548e+00)) ((-5.820636e-15 -6.699827e+02 3.349153e-15) (-3.383301e-18 2.450124e+01 -7.667517e-19))
0.0156473     	((1.229721e+02 2.694074e-14 1.732744e+03) (2.195029e+01 -1.565110e-17 -4.105123e+00)) ((-6.134225e-15 -6.593817e+02 3.277123e-15) (-1.200135e-17 2.452728e+01 -1.000841e-17))
0.0157534     	((1.230634e+02 2.699911e-14 1.741270e+03) (2.190415e+01 -1.439538e-17 -4.218569e+00)) ((-6.232803e-15 -6.639842e+02 3.264900e-15) (-2.281902e-17 2.458288e+01 -2.131052e-17))
0.0158596     	((1.224896e+02 2.702084e-14 1.756439e+03) (2.188567e+01 -1.535271e-17 -4.345597e+00)) ((-6.159356e-15 -6.730592e+02 3.251704e-15) (-3.368452e-17 2.467413e+01 -3.181085e-17))
0.0159631     	((1.231783e+02 2.721803e-14 1.738094e+03) (2.185141e+01 -1.615287e-17 -4.482975e+00)) ((-6.143322e-15 -6.625461e+02 3.398122e-15) (-4.644706e-17 2.475114e+01 -4.152485e-17))
0.0160666     	((1.234256e+02 2.726502e-14 1.744532e+03) (2.185299e+01 -1.711339e-17 -4.630721e+00)) ((-6.130603e-15 -6.664457e+02 3.402797e-15) (-5.988604e-17 2.486888e+01 -4.964417e-17))
0.0161701     	((1.226951e+02 2.720321e-14 1.742909e+03) (2.186744e+01 -1.799418e-17 -4.771730e+00)) ((-6.034974e-15 -6.639893e+02 3.442212e-15) (-7.353276e-17 2.499595e+01 -5.759615e-17))
0.0162736     	((1.228191e+02 2.728544e-14 1.736519e+03) (2.188849e+01 -1.882320e-17 -4.910168e+00)) ((-6.010226e-15 -6.632720e+02 3.448723e-15) (-8.747267e-17 2.512597e+01 -6.608559e-17))
0.0163771     	((1.225451e+02 2.722342e-14 1.739917e+03) (2.192605e+01 -1.950122e-17 -5.044807e+00)) ((-5.997825e-15 -6.632009e+02 3.450152e-15) (-1.015488e-16 2.526851e+01 -7.250440e-17))
0.0164806     	((1.225234e+02 2.724756e-14 1.740023e+03) (2.195023e+01 -1.990739e-17 -5.175655e+00)) ((-5.979124e-15 -6.653297e+02 3.426227e-15) (-1.159588e-16 2.539011e+01 -7.778136e-17))
0.0165812     	((1.223862e+02 2.722636e-14 1.744264e+03) (2.199725e+01 -2.040960e-17 -5.300402e+00)) ((-5.953479e-15 -6.672390e+02 3.407767e-15) (-1.301367e-16 2.552802e+01 -8.330032e-17))
0.0166818     	((1.223370e+02 2.724727e-14 1.739134e+03) (2.204342e+01 -2.071218e-17 -5.411493e+00)) ((-5.939827e-15 -6.644791e+02 3.429559e-15) (-1.448533e-16 2.565791e+01 -8.886519e-17))
0.0167823     	((1.222145e+02 2.724254e-14 1.747345e+03) (2.208395e+01 -2.095217e-17 -5.517442e+00)) ((-5.912432e-15 -6.706191e+02 3.372374e-15) (-1.599566e-16 2.577485e+01 -9.336622e-17))
0.0168829     	((1.216509e+02 2.719248e-14 1.758041e+03) (2.214108e+01 -2.115219e-17 -5.617716e+00)) ((-5.835157e-15 -6.781450e+02 3.304792e-15) (-1.751649e-16 2.590169e+01 -9.447100e-17))
0.0169834     	((1.215045e+02 2.717515e-14 1.741771e+03) (2.222311e+01 -2.120704e-17 -5.705206e+00)) ((-5.789831e-15 -6.661109e+02 3.396396e-15) (-1.912657e-16 2.604632e+01 -9.848361e-17))
0.017084      	((1.214686e+02 2.721092e-14 1.730722e+03) (2.228441e+01 -2.040539e-17 -5.779610e+00)) ((-5.682817e-15 -6.603728e+02 3.423069e-15) (-2.086002e-16 2.615957e+01 -9.975424e-17))
0.0171845     	((1.217046e+02 2.631090e-14 1.547981e+03) (2.234954e+01 -1.879597e-17 -5.838577e+00)) ((-2.762191e-15 -5.982477e+02 2.923036e-15) (-2.271531e-16 2.626591e+01 -1.039227e-16))
0.0172851     	((1.226286e+02 2.532348e-14 1.339470e+03) (2.243020e+01 -1.654183e-17 -5.876383e+00)) ((7.725101e-16 -5.305622e+02 2.279263e-15) (-2.460617e-16 2.637547e+01 -1.042947e-16))
0.0173856     	((1.229479e+02 2.720314e-14 1.695150e+03) (2.248003e+01 -1.401664e-17 -5.897333e+00)) ((-5.368528e-15 -6.417381e+02 3.375170e-15) (-2.649749e-16 2.643849e+01 -1.082282e-16))
0.0174862     	((1.224412e+02 2.708767e-14 1.696276e+03) (2.254947e+01 -1.116471e-17 -5.893397e+00)) ((-5.329223e-15 -6.401929e+02 3.311321e-15) (-2.837856e-16 2.650527e+01 -1.118253e-16))
0.0175867     	((1.216280e+02 2.698119e-14 1.699869e+03) (2.260143e+01 -7.498236e-18 -5.852538e+00)) ((-5.059552e-15 -6.401101e+02 3.295839e-15) (-3.023760e-16 2.653339e+01 -1.178132e-16))
0.0176873     	((1.212671e+02 2.693081e-14 1.702284e+03) (2.264172e+01 -3.211272e-18 -5.792695e+00)) ((-4.769377e-15 -6.429389e+02 3.216195e-15) (-3.182625e-16 2.653173e+01 -1.193942e-16))
0.0177878     	((1.210846e+02 2.688328e-14 1.704105e+03) (2.268036e+01 1.690126e-18 -5.707711e+00)) ((-4.417828e-15 -6.456791e+02 3.106797e-15) (-3.312029e-16 2.650873e+01 -1.213030e-16))
0.0178884     	((1.212174e+02 2.693542e-14 1.690593e+03) (2.274994e+01 6.106898e-18 -5.626752e+00)) ((-4.469523e-15 -6.350796e+02 3.153827e-15) (-3.387692e-16 2.650869e+01 -1.168441e-16))
0.0179889     	((1.212074e+02 2.694622e-14 1.687480e+03) (2.281953e+01 7.767074e-18 -5.549706e+00)) ((-4.413194e-15 -6.313014e+02 3.103804e-15) (-3.410600e-16 2.649671e+01 -1.108249e-16))
0.0180847     	((1.209716e+02 2.689626e-14 1.685352e+03) (2.290060e+01 8.409126e-18 -5.464024e+00)) ((-4.153921e-15 -6.283952e+02 3.006510e-15) (-3.407612e-16 2.648867e+01 -1.029694e-16))
0.0181805     	((1.216476e+02 2.705674e-14 1.687984e+03) (2.295890e+01 8.691816e-18 -5.402355e+00)) ((-4.667026e-15 -6.339567e+02 3.106515e-15) (-3.343467e-16 2.647856e+01 -9.898579e-17))
0.0182762     	((1.214646e+02 2.709352e-14 1.693543e+03) (2.301437e+01 8.643966e-18 -5.361605e+00)) ((-5.093318e-15 -6.354267e+02 3.270864e-15) (-3.236941e-16 2.648142e+01 -9.527373e-17))
0.018372      	((1.217257e+02 2.717472e-14 1.691682e+03) (2.308646e+01 7.846993e-18 -5.340794e+00)) ((-5.419249e-15 -6.342538e+02 3.390718e-15) (-3.100963e-16 2.651038e+01 -9.332451e-17))
0.0184678     	((1.220947e+02 2.726052e-14 1.688702e+03) (2.317024e+01 6.253805e-18 -5.327263e+00)) ((-5.604266e-15 -6.345840e+02 3.444960e-15) (-2.942179e-16 2.655840e+01 -8.818087e-17))
0.0185635     	((1.220249e+02 2.725969e-14 1.685269e+03) (2.322369e+01 5.655937e-18 -5.310745e+00)) ((-5.561925e-15 -6.321624e+02 3.470690e-15) (-2.790994e-16 2.658322e+01 -8.044384e-17))
0.0186593     	((1.215598e+02 2.714754e-14 1.684435e+03) (2.328186e+01 4.701297e-18 -5.307824e+00)) ((-4.958029e-15 -6.312021e+02 3.265562e-15) (-2.633684e-16 2.662398e+01 -7.575822e-17))
0.0187551     	((1.214615e+02 2.719231e-14 1.694694e+03) (2.331911e+01 3.323900e-18 -5.315182e+00)) ((-5.279918e-15 -6.390111e+02 3.332631e-15) (-2.461008e-16 2.665132e+01 -7.057611e-17))
0.0188508     	((1.219938e+02 2.732283e-14 1.685472e+03) (2.335553e+01 2.469751e-18 -5.333247e+00)) ((-5.751660e-15 -6.342683e+02 3.528661e-15) (-2.291294e-16 2.668646e+01 -6.597083e-17))
0.0189466     	((1.221458e+02 2.739269e-14 1.689697e+03) (2.340068e+01 1.870490e-18 -5.361582e+00)) ((-6.122723e-15 -6.367708e+02 3.624545e-15) (-2.122138e-16 2.673697e+01 -6.004180e-17))
0.0190424     	((1.222909e+02 2.744183e-14 1.685934e+03) (2.344358e+01 1.303320e-18 -5.393344e+00)) ((-6.330058e-15 -6.344316e+02 3.688464e-15) (-1.948634e-16 2.678758e+01 -5.230055e-17))
0.0191381     	((1.219818e+02 2.741874e-14 1.688748e+03) (2.347803e+01 7.734705e-19 -5.421938e+00)) ((-6.446998e-15 -6.342760e+02 3.726119e-15) (-1.771825e-16 2.683104e+01 -4.591798e-17))
0.0192339     	((1.219078e+02 2.742796e-14 1.684800e+03) (2.352397e+01 2.672196e-19 -5.450382e+00)) ((-6.539861e-15 -6.319369e+02 3.758967e-15) (-1.586928e-16 2.688806e+01 -4.137950e-17))
0.0193296     	((1.218000e+02 2.743509e-14 1.679011e+03) (2.353699e+01 -2.451018e-19 -5.475068e+00)) ((-6.590795e-15 -6.299932e+02 3.771044e-15) (-1.382934e-16 2.690978e+01 -3.037228e-17))
0.0194254     	((1.219146e+02 2.746103e-14 1.685383e+03) (2.354075e+01 3.301332e-19 -5.497230e+00)) ((-6.728091e-15 -6.365955e+02 3.707252e-15) (-1.172686e-16 2.692018e+01 -1.993674e-17))
0.0195212     	((1.209837e+02 2.733227e-14 1.692511e+03) (2.356475e+01 1.856118e-18 -5.516771e+00)) ((-6.560526e-15 -6.418712e+02 3.649308e-15) (-9.510539e-17 2.694914e+01 -6.871658e-18))
0.0196169     	((1.169068e+02 2.279805e-14 1.186603e+03) (2.361727e+01 3.675072e-18 -5.515475e+00)) ((1.911316e-14 -4.770273e+02 7.450243e-16) (-7.046169e-17 2.700225e+01 3.100339e-18))
0.0197127     	((1.211407e+02 2.728379e-14 1.671899e+03) (2.362814e+01 5.540275e-18 -5.494790e+00)) ((-6.334139e-15 -6.340707e+02 3.621063e-15) (-4.354644e-17 2.700626e+01 1.980087e-17))
0.0198085     	((1.211892e+02 2.741833e-14 1.680100e+03) (2.359666e+01 7.613297e-18 -5.457878e+00)) ((-7.265242e-15 -6.352805e+02 3.739361e-15) (-1.587405e-17 2.695849e+01 3.690473e-17))
0.0199042     	((1.213051e+02 2.748026e-14 1.672742e+03) (2.354770e+01 9.894598e-18 -5.415870e+00)) ((-7.610259e-15 -6.310588e+02 3.803162e-15) (1.088786e-17 2.689022e+01 6.243182e-17))
0.02          	((1.210645e+02 2.749323e-14 1.675092e+03) (2.353019e+01 1.247375e-17 -5.378407e+00)) ((-8.038041e-15 -6.322546e+02 3.829369e-15) (3.545589e-17 2.685356e+01 8.402585e-17))
0.0201        	((1.214638e+02 2.749610e-14 1.665084e+03) (2.350824e+01 1.436885e-17 -5.352928e+00)) ((-7.427633e-15 -6.282759e+02 3.802965e-15) (5.411633e-17 2.681899e+01 1.076408e-16))
0.0202        	((1.215269e+02 2.747667e-14 1.667405e+03) (2.350769e+01 1.549831e-17 -5.347885e+00)) ((-6.984031e-15 -6.273143e+02 3.810238e-15) (6.789667e-17 2.681477e+01 1.255594e-16))
0.0203        	((1.216312e+02 2.746198e-14 1.671643e+03) (2.349532e+01 1.609115e-17 -5.356211e+00)) ((-6.624902e-15 -6.316514e+02 3.737642e-15) (7.896136e-17 2.680271e+01 1.415933e-16))
0.0204        	((1.214986e+02 2.744742e-14 1.671627e+03) (2.350626e+01 1.667916e-17 -5.361797e+00)) ((-6.537841e-15 -6.285797e+02 3.787086e-15) (8.720574e-17 2.681792e+01 1.541446e-16))
0.0205        	((1.215671e+02 2.743992e-14 1.664312e+03) (2.352608e+01 1.721757e-17 -5.372528e+00)) ((-6.356903e-15 -6.252583e+02 3.793885e-15) (9.450836e-17 2.684463e+01 1.673369e-16))
0.0206        	((1.216613e+02 2.745491e-14 1.663624e+03) (2.350535e+01 1.749160e-17 -5.388471e+00)) ((-6.390052e-15 -6.248293e+02 3.803497e-15) (1.008065e-16 2.682809e+01 1.763276e-16))
0.0207        	((1.211321e+02 2.736623e-14 1.682765e+03) (2.353422e+01 1.656587e-17 -5.413595e+00)) ((-6.244165e-15 -6.392595e+02 3.655693e-15) (1.078504e-16 2.686671e+01 1.838327e-16))
0.0208        	((1.213214e+02 2.740341e-14 1.669684e+03) (2.354319e+01 1.481311e-17 -5.434232e+00)) ((-6.338964e-15 -6.278374e+02 3.785395e-15) (1.151819e-16 2.688426e+01 1.900103e-16))