# Forces      
# CofR        : (0.000000e+00 0.000000e+00 -1.000000e+00)
# Time        forces(pressure viscous)	moments(pressure viscous)
0             	((5.684342e-14 4.864098e-14 0.000000e+00) (1.622564e+01 -1.098229e-17 2.980736e+00)) ((-4.335934e-14 0.000000e+00 2.608116e-14) (-1.433971e-17 1.480597e+01 1.002964e-16))
1.19976e-05   	((1.749492e+05 -6.462344e-12 1.742722e+06) (1.645582e+01 -1.050520e-17 2.571389e+00)) ((-1.673920e-11 -4.867285e+05 -3.247036e-12) (-3.592495e-18 1.517444e+01 1.023637e-16))
2.63878e-05   	((2.048842e+04 -1.221566e-12 2.871561e+05) (1.645715e+01 -1.008711e-17 2.423119e+00)) ((-1.868612e-12 -9.899245e+04 -7.122385e-13) (-1.198755e-18 1.522957e+01 1.022225e-16))
4.36511e-05   	((1.229721e+04 -6.776625e-13 1.666834e+05) (1.647156e+01 -9.714136e-18 2.327786e+00)) ((-1.188566e-12 -5.666409e+04 -3.947461e-13) (8.813883e-20 1.528651e+01 1.022901e-16))
6.43527e-05   	((8.210823e+03 -4.597638e-13 1.135296e+05) (1.648966e+01 -9.203956e-18 2.237074e+00)) ((-8.423991e-13 -3.871526e+04 -2.678073e-13) (9.510124e-19 1.534964e+01 1.026797e-16))
8.91792e-05   	((6.207382e+03 -3.152609e-13 8.033565e+04) (1.650782e+01 -7.993356e-18 2.138436e+00)) ((-6.254440e-13 -2.692006e+04 -1.836999e-13) (1.001747e-18 1.542111e+01 1.038567e-16))
0.000118941   	((4.528539e+03 -2.123404e-13 5.698787e+04) (1.651874e+01 -7.322860e-18 2.035111e+00)) ((-4.554302e-13 -1.931306e+04 -1.274314e-13) (2.067009e-18 1.549431e+01 1.046266e-16))
0.000154634   	((3.684814e+03 -1.588856e-13 4.345257e+04) (1.653351e+01 -6.331930e-18 1.909563e+00)) ((-3.619941e-13 -1.425333e+04 -9.326928e-14) (2.826704e-18 1.558391e+01 1.057496e-16))
0.000197405   	((2.732405e+03 -1.224706e-13 3.377788e+04) (1.653011e+01 -4.905812e-18 1.766581e+00)) ((-2.679566e-13 -1.142024e+04 -7.234221e-14) (3.486704e-18 1.566400e+01 1.085910e-16))
0.000248707   	((2.389896e+03 -8.285324e-14 2.551889e+04) (1.656736e+01 -2.286394e-18 1.659052e+00)) ((-2.228255e-13 -8.300348e+03 -4.933368e-14) (2.104495e-18 1.575435e+01 1.125170e-16))
0.000310237   	((8.766510e+02 -1.407919e-13 3.170640e+04) (1.654757e+01 -2.660517e-18 1.482341e+00)) ((-9.936419e-14 -1.601030e+04 -9.369797e-14) (5.585414e-18 1.585364e+01 1.171624e-16))
0.000383982   	((1.788211e+03 -4.289573e-14 1.646791e+04) (1.659644e+01 -2.805541e-18 1.347878e+00)) ((-1.702614e-13 -4.764826e+03 -2.480319e-14) (7.449305e-18 1.598551e+01 1.183197e-16))
0.000472342   	((1.566231e+03 -2.523967e-14 1.294436e+04) (1.667377e+01 -2.796604e-18 1.258988e+00)) ((-1.519472e-13 -3.678813e+03 -1.720885e-14) (9.579522e-18 1.613231e+01 1.193858e-16))
0.000577897   	((1.298531e+03 -2.216692e-14 1.137271e+04) (1.677866e+01 -2.425443e-18 1.196948e+00)) ((-1.249982e-13 -3.233778e+03 -1.309477e-14) (1.076411e-17 1.629836e+01 1.203063e-16))
0.000704014   	((1.206772e+03 -1.656031e-14 1.022040e+04) (1.691997e+01 -1.940607e-18 1.195506e+00)) ((-1.103404e-13 -3.142218e+03 -1.216548e-14) (1.195088e-17 1.649329e+01 1.215794e-16))
0.000819559   	((9.777091e+02 -2.141466e-14 1.034817e+04) (1.708927e+01 -1.736280e-18 1.214256e+00)) ((-9.662321e-14 -3.541390e+03 -1.400223e-14) (1.371630e-17 1.670486e+01 1.208740e-16))
0.000937231   	((1.074983e+03 -1.908384e-14 9.711055e+03) (1.727707e+01 -1.379914e-18 1.253763e+00)) ((-9.830616e-14 -3.279040e+03 -1.418445e-14) (1.592093e-17 1.692273e+01 1.196591e-16))
0.00105788    	((9.604258e+02 -1.206467e-14 8.491388e+03) (1.748376e+01 -1.091162e-18 1.287317e+00)) ((-9.177619e-14 -2.640740e+03 -8.106326e-15) (1.785200e-17 1.715804e+01 1.183565e-16))
0.00118009    	((9.340305e+02 -9.538145e-15 7.620003e+03) (1.770103e+01 -9.426180e-19 1.311737e+00)) ((-8.693107e-14 -2.339210e+03 -6.487117e-15) (1.980642e-17 1.740097e+01 1.176117e-16))
0.00128702    	((9.947070e+02 -1.155219e-14 7.180830e+03) (1.787664e+01 -6.799016e-19 1.340369e+00)) ((-8.714346e-14 -2.096745e+03 -6.212624e-15) (2.112334e-17 1.759735e+01 1.189923e-16))
0.00139334    	((9.314332e+02 -8.281935e-15 7.321087e+03) (1.804263e+01 -4.430672e-19 1.355414e+00)) ((-8.463906e-14 -2.210932e+03 -5.811694e-15) (2.213688e-17 1.778514e+01 1.204143e-16))
0.0015009     	((8.539876e+02 -1.096979e-14 7.047570e+03) (1.819039e+01 -3.098997e-19 1.364965e+00)) ((-7.397103e-14 -2.272245e+03 -6.584403e-15) (2.292694e-17 1.795427e+01 1.204099e-16))
0.00160661    	((9.690263e+02 -2.534033e-14 7.681709e+03) (1.833759e+01 -5.182150e-20 1.384407e+00)) ((-5.932174e-14 -2.804638e+03 -1.350403e-14) (2.251965e-17 1.811883e+01 1.169283e-16))
0.00170549    	((1.096626e+03 -1.515500e-14 7.794161e+03) (1.847426e+01 2.412984e-19 1.389346e+00)) ((-8.203102e-14 -2.479306e+03 -9.959140e-15) (2.211815e-17 1.827354e+01 1.128539e-16))
0.00180546    	((1.299074e+03 -2.015670e-14 8.338212e+03) (1.862713e+01 4.913946e-19 1.385903e+00)) ((-8.472549e-14 -2.667206e+03 -1.332212e-14) (2.173370e-17 1.844504e+01 1.071993e-16))
0.00190381    	((2.240827e+03 -5.044330e-14 1.053916e+04) (1.879355e+01 5.166913e-19 1.403100e+00)) ((-1.150959e-13 -3.494743e+03 -3.118311e-14) (2.437410e-17 1.862348e+01 9.957038e-17))
0.00199709    	((7.698499e+03 -1.078244e-13 1.852508e+04) (1.916218e+01 1.329013e-18 1.356485e+00)) ((-2.781396e-13 -3.102538e+03 -6.831931e-14) (2.370801e-17 1.901464e+01 8.918881e-17))
0.00208449    	((4.188557e+02 -2.104240e-14 8.536564e+03) (1.932545e+01 1.944383e-18 1.324507e+00)) ((-5.917230e-14 -3.559487e+03 -1.385592e-14) (2.245921e-17 1.919996e+01 8.314035e-17))
0.0021698     	((6.192418e+02 -2.844705e-14 6.859072e+03) (1.946928e+01 9.841063e-19 1.361016e+00)) ((-8.802228e-14 -3.199719e+03 -1.906483e-14) (2.605363e-17 1.934986e+01 8.176533e-17))
0.00225273    	((3.117369e+02 -1.678962e-14 7.669768e+03) (1.959569e+01 1.362641e-18 1.351740e+00)) ((-4.750858e-14 -3.322726e+03 -1.173216e-14) (2.586498e-17 1.948984e+01 8.166515e-17))
0.00233489    	((2.544511e+02 -2.291976e-14 8.292868e+03) (1.973687e+01 1.768515e-18 1.340175e+00)) ((-3.864651e-14 -3.849606e+03 -1.599287e-14) (2.594216e-17 1.964389e+01 8.145033e-17))
0.00241861    	((2.900242e+02 -2.749851e-14 8.706179e+03) (1.984993e+01 9.314503e-19 1.380039e+00)) ((-3.722893e-14 -4.253638e+03 -2.011703e-14) (2.817551e-17 1.975651e+01 8.265167e-17))
0.00251908    	((-3.490805e+02 -1.297874e-13 2.141253e+04) (1.970508e+01 1.349558e-18 1.431007e+00)) ((5.407607e-14 -1.323393e+04 -8.990977e-14) (3.217344e-17 1.957762e+01 1.133642e-16))
0.00263964    	((5.048672e+02 -1.174964e-14 4.678106e+03) (1.991048e+01 2.145836e-18 1.454744e+00)) ((-6.000340e-14 -2.146634e+03 -8.048013e-15) (3.675967e-17 1.975068e+01 1.085514e-16))
0.00277526    	((4.558199e+02 1.900005e-15 4.253332e+03) (2.001491e+01 1.733996e-18 1.479551e+00)) ((-4.915682e-14 -1.515907e+03 2.600643e-16) (3.710523e-17 1.986177e+01 1.162730e-16))
0.00293185    	((5.913061e+02 3.870297e-15 3.379065e+03) (2.041753e+01 2.404069e-18 1.476760e+00)) ((-5.934914e-14 -1.069714e+03 1.278813e-15) (3.313076e-17 2.028832e+01 1.146576e-16))
0.00310426    	((9.104451e+02 -4.400499e-16 3.433160e+03) (2.072343e+01 2.200803e-18 1.494358e+00)) ((-7.490421e-14 -9.037520e+02 -1.165911e-15) (3.211390e-17 2.060098e+01 1.300743e-16))
0.00318874    	((6.946600e+02 -1.213930e-14 3.016139e+03) (2.108263e+01 2.158037e-18 1.519713e+00)) ((-7.868460e-14 -1.188729e+03 -6.088382e-15) (3.269719e-17 2.095111e+01 1.202486e-16))
0.00327279    	((3.884592e+02 -6.026828e-15 4.543209e+03) (2.130717e+01 2.476335e-18 1.506072e+00)) ((-4.798266e-14 -1.913930e+03 -4.366544e-15) (3.187553e-17 2.117260e+01 1.280106e-16))
0.00335857    	((2.909513e+02 -4.645943e-15 4.864918e+03) (2.152974e+01 2.966639e-18 1.474047e+00)) ((-3.934913e-14 -2.087151e+03 -4.013657e-15) (3.062191e-17 2.139017e+01 1.331281e-16))
0.00344305    	((2.540641e+02 -2.554031e-15 4.580210e+03) (2.171433e+01 3.241531e-18 1.441513e+00)) ((-3.767348e-14 -1.958923e+03 -2.669449e-15) (3.065519e-17 2.156423e+01 1.346970e-16))
0.00352884    	((5.948278e+02 -2.140436e-14 2.135140e+03) (2.216461e+01 2.688921e-18 1.457672e+00)) ((-7.453616e-14 -8.821299e+02 -7.232746e-15) (3.309018e-17 2.199868e+01 1.257545e-16))
0.00363178    	((8.853669e+01 -1.689478e-14 6.445455e+03) (2.307321e+01 1.855497e-18 1.553515e+00)) ((-1.783725e-14 -3.371328e+03 -1.272946e-14) (4.076294e-17 2.276853e+01 1.328822e-16))
0.00375393    	((2.065847e+02 5.772111e-15 3.385565e+03) (2.514095e+01 2.443715e-18 1.589183e+00)) ((-3.517937e-14 -1.349377e+03 2.621459e-15) (3.669640e-17 2.473703e+01 7.548539e-17))
0.00389398    	((2.031300e+02 7.432234e-15 2.940572e+03) (2.700153e+01 2.999191e-18 1.677693e+00)) ((-3.624839e-14 -1.111068e+03 4.015957e-15) (3.617726e-17 2.643266e+01 8.661756e-17))
0.00405345    	((2.297306e+02 4.391762e-15 2.533439e+03) (2.845756e+01 3.533767e-18 1.775559e+00)) ((-3.618717e-14 -9.496750e+02 3.437232e-15) (3.475695e-17 2.775241e+01 1.024229e-16))
0.00423466    	((2.913079e+02 -1.388166e-15 2.020513e+03) (2.951860e+01 3.458197e-18 1.829968e+00)) ((-3.616455e-14 -7.471509e+02 1.980210e-15) (3.376207e-17 2.872253e+01 1.164845e-16))
0.00443678    	((1.586553e+02 1.132224e-14 2.543406e+03) (3.008115e+01 3.516060e-18 1.839392e+00)) ((-3.234348e-14 -9.149382e+02 6.146794e-15) (3.383362e-17 2.921963e+01 1.406149e-16))
0.00465911    	((1.596093e+02 1.185506e-14 2.421424e+03) (3.019692e+01 3.683303e-18 1.843941e+00)) ((-3.216370e-14 -8.587292e+02 6.488017e-15) (3.607716e-17 2.928289e+01 1.658873e-16))
0.00490654    	((1.596891e+02 1.178881e-14 2.241468e+03) (3.079481e+01 3.369027e-18 1.853128e+00)) ((-3.694248e-14 -7.965922e+02 6.485408e-15) (3.628882e-17 2.987777e+01 1.208380e-16))
0.00501359    	((1.737870e+02 8.703174e-15 2.332261e+03) (3.090414e+01 3.065760e-18 1.815569e+00)) ((-3.657577e-14 -8.517423e+02 5.341681e-15) (3.527087e-17 3.001093e+01 1.264414e-16))
0.00512378    	((1.726759e+02 9.949366e-15 2.327886e+03) (3.091353e+01 2.866663e-18 1.803215e+00)) ((-3.539432e-14 -8.475441e+02 5.726023e-15) (3.513797e-17 3.004393e+01 1.331868e-16))
0.00523564    	((1.659832e+02 1.151415e-14 2.311994e+03) (3.088203e+01 2.839953e-18 1.776017e+00)) ((-3.296572e-14 -8.258545e+02 6.372991e-15) (3.439545e-17 3.004190e+01 1.366741e-16))
0.00536986    	((1.634122e+02 1.175562e-14 2.232201e+03) (3.084597e+01 2.586812e-18 1.733889e+00)) ((-3.172344e-14 -8.008571e+02 6.503527e-15) (3.405525e-17 3.004260e+01 1.469922e-16))
0.00552888    	((1.914945e+02 1.051555e-14 1.627907e+03) (3.072604e+01 2.309153e-18 1.709502e+00)) ((-2.425160e-14 -6.335716e+02 6.114689e-15) (3.370638e-17 2.994564e+01 1.519255e-16))
0.00570754    	((1.913957e+02 3.905433e-15 1.690404e+03) (3.034613e+01 2.051293e-18 1.733753e+00)) ((-3.588109e-14 -6.809409e+02 3.960688e-15) (3.551136e-17 2.956352e+01 1.619780e-16))
0.00585642    	((1.417853e+02 1.168845e-14 2.331310e+03) (2.986409e+01 2.715667e-18 1.727913e+00)) ((-2.855487e-14 -8.791134e+02 6.297787e-15) (3.523655e-17 2.909006e+01 1.803239e-16))
0.00602281    	((1.432869e+02 1.218614e-14 2.235612e+03) (2.948855e+01 1.847519e-18 1.730738e+00)) ((-2.842038e-14 -8.295817e+02 6.610191e-15) (3.765278e-17 2.870858e+01 1.795975e-16))
0.00620917    	((1.423613e+02 1.238611e-14 2.175679e+03) (2.973527e+01 2.006787e-18 1.667567e+00)) ((-2.829512e-14 -8.056986e+02 6.730608e-15) (3.158051e-17 2.900560e+01 1.104071e-16))
0.00640071    	((1.468281e+02 1.049171e-14 1.954972e+03) (2.939173e+01 1.329077e-18 1.567021e+00)) ((-1.872255e-14 -7.457165e+02 6.151121e-15) (2.442057e-17 2.871011e+01 9.097064e-17))
0.00654091    	((1.416578e+02 1.203640e-14 2.157829e+03) (2.914481e+01 1.295314e-18 1.427949e+00)) ((-2.722714e-14 -8.106988e+02 6.551000e-15) (1.866990e-17 2.851020e+01 9.106089e-17))
0.00668409    	((1.484253e+02 1.213416e-14 2.022152e+03) (2.892212e+01 1.487199e-18 1.215413e+00)) ((-3.020140e-14 -7.599756e+02 6.581173e-15) (1.283371e-17 2.835884e+01 9.963566e-17))
0.00682137    	((1.515009e+02 9.403552e-15 1.964065e+03) (2.868535e+01 3.205701e-18 9.809872e-01)) ((-2.803932e-14 -7.620706e+02 5.710351e-15) (4.197214e-18 2.822236e+01 1.105705e-16))
0.00694118    	((1.647234e+02 6.992580e-15 1.802097e+03) (2.895250e+01 4.020914e-18 7.061888e-01)) ((-3.088410e-14 -7.205530e+02 4.874868e-15) (-5.423809e-19 2.861290e+01 7.677224e-17))
0.0070365     	((1.428242e+02 1.178920e-14 2.139997e+03) (2.886931e+01 5.923354e-18 4.972547e-01)) ((-2.867917e-14 -8.058334e+02 6.430365e-15) (5.222887e-18 2.861855e+01 8.765789e-17))
0.00712068    	((1.416465e+02 1.186114e-14 2.147727e+03) (2.876990e+01 7.374635e-18 3.167801e-01)) ((-2.884908e-14 -8.083556e+02 6.465757e-15) (1.920846e-17 2.859476e+01 1.067156e-16))
0.00719873    	((1.421376e+02 1.182979e-14 2.131388e+03) (2.861392e+01 7.530164e-18 2.084557e-01)) ((-2.923314e-14 -8.040042e+02 6.472334e-15) (4.439081e-17 2.849178e+01 1.309237e-16))
0.00727316    	((1.409061e+02 1.183133e-14 2.134779e+03) (2.873238e+01 6.388960e-18 9.492311e-02)) ((-2.954631e-14 -8.083301e+02 6.412197e-15) (7.302497e-17 2.867242e+01 1.268467e-16))
0.00734672    	((1.387447e+02 1.203652e-14 2.119835e+03) (2.854461e+01 6.810714e-18 1.560441e-02)) ((-2.942381e-14 -8.014978e+02 6.526159e-15) (9.993972e-17 2.852766e+01 1.535400e-16))
0.00742115    	((1.396933e+02 1.186775e-14 2.127767e+03) (2.836803e+01 6.005356e-18 -1.030526e-01)) ((-2.866548e-14 -8.087121e+02 6.440211e-15) (1.221096e-16 2.840013e+01 1.787526e-16))
0.00749785    	((1.372306e+02 1.214722e-14 2.102797e+03) (2.836256e+01 4.874983e-18 -2.097704e-01)) ((-2.792051e-14 -7.962027e+02 6.577356e-15) (1.428341e-16 2.845333e+01 1.848481e-16))
0.00757648    	((1.379773e+02 1.208335e-14 2.086865e+03) (2.819260e+01 4.915810e-18 -2.962301e-01)) ((-2.764603e-14 -7.919075e+02 6.553752e-15) (1.635860e-16 2.832826e+01 2.084524e-16))
0.00765716    	((1.348245e+02 1.201880e-14 2.110248e+03) (2.845748e+01 3.573852e-18 -3.954597e-01)) ((-2.734694e-14 -8.098770e+02 6.472102e-15) (1.847652e-16 2.866185e+01 1.735011e-16))
0.00773944    	((1.365914e+02 1.194635e-14 2.100064e+03) (2.833900e+01 4.275933e-18 -4.493363e-01)) ((-2.772037e-14 -8.055602e+02 6.447542e-15) (2.106850e-16 2.857597e+01 1.835363e-16))
0.00782342    	((1.329394e+02 1.225473e-14 2.084604e+03) (2.823554e+01 1.244640e-18 -4.746821e-01)) ((-2.708416e-14 -7.979658e+02 6.588125e-15) (2.439711e-16 2.848730e+01 1.960802e-16))
0.00790514    	((1.360750e+02 1.232084e-14 2.054813e+03) (2.814585e+01 -1.994281e-18 -3.734477e-01)) ((-2.792325e-14 -7.795159e+02 6.661254e-15) (2.798919e-16 2.838386e+01 2.012337e-16))
0.00798218    	((1.340595e+02 1.219901e-14 2.064289e+03) (2.823606e+01 -5.684462e-18 -2.871122e-01)) ((-2.795419e-14 -7.917955e+02 6.573897e-15) (3.104334e-16 2.846365e+01 1.810386e-16))
0.00805591    	((1.332444e+02 1.244665e-14 2.054944e+03) (2.813599e+01 -7.966164e-18 -1.716111e-01)) ((-2.751187e-14 -7.819004e+02 6.696919e-15) (3.378776e-16 2.833037e+01 1.885546e-16))
0.00812743    	((1.337024e+02 1.231649e-14 2.035555e+03) (2.812280e+01 -1.141194e-17 -2.570983e-02)) ((-2.878226e-14 -7.780480e+02 6.645736e-15) (3.622764e-16 2.827974e+01 1.820782e-16))
0.00819686    	((1.838975e+02 4.492365e-15 9.066008e+02) (2.819762e+01 -1.445420e-17 1.326086e-01)) ((-8.299577e-14 -4.674924e+02 4.244898e-15) (3.813209e-16 2.831403e+01 1.776996e-16))
0.00826392    	((1.377712e+02 1.175554e-14 2.041140e+03) (2.822331e+01 -1.782490e-17 2.762549e-01)) ((-2.913973e-14 -7.930806e+02 6.351913e-15) (3.970926e-16 2.829833e+01 1.798646e-16))
0.00832841    	((1.357564e+02 1.185419e-14 2.053913e+03) (2.825995e+01 -2.088402e-17 4.320285e-01)) ((-2.852643e-14 -7.982718e+02 6.384096e-15) (4.090563e-16 2.829530e+01 1.737582e-16))
0.00839082    	((1.336284e+02 1.205547e-14 2.062285e+03) (2.825420e+01 -2.345712e-17 5.759100e-01)) ((-2.792633e-14 -7.996819e+02 6.461308e-15) (4.170684e-16 2.825177e+01 1.668110e-16))
0.00845129    	((1.338398e+02 1.221347e-14 2.038412e+03) (2.825025e+01 -2.581416e-17 7.136534e-01)) ((-2.781804e-14 -7.872382e+02 6.555770e-15) (4.222856e-16 2.821304e+01 1.593072e-16))
0.00851112    	((1.322503e+02 1.239920e-14 2.039523e+03) (2.821771e+01 -2.741244e-17 8.602310e-01)) ((-2.749555e-14 -7.863217e+02 6.628299e-15) (4.241979e-16 2.814453e+01 1.552523e-16))
0.00857065    	((1.317132e+02 1.252324e-14 2.028541e+03) (2.821258e+01 -2.845186e-17 9.849866e-01)) ((-2.738013e-14 -7.813784e+02 6.682669e-15) (4.238864e-16 2.810902e+01 1.491502e-16))
0.00863018    	((1.353539e+02 1.210125e-14 2.035950e+03) (2.822895e+01 -2.934539e-17 1.113612e+00)) ((-2.772317e-14 -7.917592e+02 6.472912e-15) (4.251137e-16 2.810214e+01 1.473798e-16))
0.00869002    	((1.306614e+02 1.270823e-14 2.026124e+03) (2.822221e+01 -2.991942e-17 1.227599e+00)) ((-2.696084e-14 -7.807925e+02 6.743838e-15) (4.254144e-16 2.807814e+01 1.444225e-16))
0.0087505     	((1.300413e+02 1.282321e-14 2.015096e+03) (2.822958e+01 -3.041657e-17 1.314576e+00)) ((-2.678446e-14 -7.753467e+02 6.799215e-15) (4.264898e-16 2.807782e+01 1.376114e-16))
0.00881197    	((1.319046e+02 1.246338e-14 2.010254e+03) (2.827569e+01 -3.160205e-17 1.359762e+00)) ((-2.699187e-14 -7.783669e+02 6.647662e-15) (4.307626e-16 2.813302e+01 1.326847e-16))
0.00887483    	((1.300864e+02 1.262180e-14 2.006102e+03) (2.834411e+01 -3.297537e-17 1.375686e+00)) ((-2.663940e-14 -7.731605e+02 6.734368e-15) (4.376022e-16 2.822297e+01 1.281485e-16))
0.00893914    	((1.303293e+02 1.246730e-14 2.008340e+03) (2.845025e+01 -3.445485e-17 1.364231e+00)) ((-2.654422e-14 -7.770461e+02 6.661678e-15) (4.477078e-16 2.836225e+01 1.301691e-16))
0.00900537    	((1.308240e+02 1.239622e-14 2.002947e+03) (2.857517e+01 -3.623084e-17 1.337912e+00)) ((-2.652740e-14 -7.756262e+02 6.637314e-15) (4.565930e-16 2.852583e+01 1.231768e-16))
0.00907324    	((1.306917e+02 1.226865e-14 2.006920e+03) (2.872568e+01 -3.812528e-17 1.324555e+00)) ((-2.646861e-14 -7.805883e+02 6.568291e-15) (4.676109e-16 2.872008e+01 1.176594e-16))
0.00914283    	((1.298583e+02 1.244054e-14 1.996650e+03) (2.883259e+01 -4.029270e-17 1.297886e+00)) ((-2.626209e-14 -7.732171e+02 6.652207e-15) (4.797592e-16 2.887222e+01 1.194275e-16))
0.00921474    	((1.285986e+02 1.261174e-14 1.985493e+03) (2.895602e+01 -4.239142e-17 1.245226e+00)) ((-2.600026e-14 -7.664693e+02 6.729251e-15) (4.906121e-16 2.904822e+01 1.144759e-16))
0.00928861    	((1.293627e+02 1.256440e-14 1.970782e+03) (2.911751e+01 -4.461055e-17 1.183303e+00)) ((-2.606800e-14 -7.606855e+02 6.726081e-15) (5.035588e-16 2.926795e+01 1.054625e-16))
0.00936512    	((1.294971e+02 1.251254e-14 1.969386e+03) (2.925187e+01 -4.740158e-17 1.124131e+00)) ((-2.604937e-14 -7.613640e+02 6.699853e-15) (5.145965e-16 2.946194e+01 9.720244e-17))
0.00944508    	((1.288043e+02 1.263914e-14 1.953809e+03) (2.944197e+01 -4.984620e-17 1.074170e+00)) ((-2.591876e-14 -7.534245e+02 6.769443e-15) (5.320067e-16 2.971253e+01 8.493775e-17))
0.00952819    	((1.287553e+02 1.279984e-14 1.949771e+03) (2.953449e+01 -5.327740e-17 9.746518e-01)) ((-2.591296e-14 -7.541434e+02 6.805383e-15) (5.360889e-16 2.988030e+01 8.609444e-17))
0.00961473    	((1.563168e+02 1.971817e-14 1.037069e+03) (2.973843e+01 -5.713813e-17 8.846815e-01)) ((-4.804454e-14 -4.900969e+02 8.993822e-15) (5.443375e-16 3.016463e+01 8.618318e-17))
0.00970504    	((1.306508e+02 1.325278e-14 1.870034e+03) (2.988851e+01 -6.540172e-17 7.894525e-01)) ((-2.761490e-14 -7.317264e+02 6.942885e-15) (5.572955e-16 3.039684e+01 6.490472e-17))
0.00979779    	((1.292343e+02 1.287639e-14 1.912348e+03) (3.009662e+01 -7.357361e-17 6.824638e-01)) ((-2.616058e-14 -7.415044e+02 6.839196e-15) (5.727270e-16 3.069319e+01 5.797936e-17))
0.00989225    	((1.287425e+02 1.268813e-14 1.929818e+03) (3.028744e+01 -8.140786e-17 5.898897e-01)) ((-2.606087e-14 -7.539642e+02 6.722900e-15) (5.832078e-16 3.096932e+01 3.590014e-17))
0.00995206    	((1.264866e+02 1.256937e-14 1.984089e+03) (3.061840e+01 -7.866144e-17 -9.085787e-01)) ((-2.585445e-14 -7.800976e+02 6.619137e-15) (6.635601e-16 3.201458e+01 3.123226e-17))
0.0100115     	((1.291494e+02 1.272280e-14 1.947502e+03) (2.995105e+01 -7.036576e-17 -3.747931e+00)) ((-2.607651e-14 -7.580210e+02 6.734183e-15) (7.207043e-16 3.259919e+01 -1.494427e-17))
0.0100706     	((1.279365e+02 1.284033e-14 1.948236e+03) (3.000493e+01 -6.624147e-17 -4.900255e+00)) ((-2.584796e-14 -7.569874e+02 6.785888e-15) (6.900485e-16 3.320763e+01 -1.435946e-17))
0.0101294     	((1.290910e+02 1.271150e-14 1.947224e+03) (3.022737e+01 -6.428820e-17 -5.799621e+00)) ((-2.601580e-14 -7.600728e+02 6.715216e-15) (6.771705e-16 3.388906e+01 -1.454698e-18))
0.0101878     	((1.292707e+02 1.278631e-14 1.932385e+03) (3.014269e+01 -6.300413e-17 -6.174928e+00)) ((-2.610250e-14 -7.538018e+02 6.739629e-15) (6.845419e-16 3.400609e+01 -6.007199e-19))
0.0102462     	((1.281984e+02 1.298283e-14 1.926456e+03) (2.989106e+01 -6.052136e-17 -6.550759e+00)) ((-2.584806e-14 -7.474782e+02 6.815024e-15) (6.856220e-16 3.394922e+01 5.599627e-18))
0.0103046     	((1.282488e+02 1.303249e-14 1.917264e+03) (2.957703e+01 -6.039866e-17 -6.794752e+00)) ((-2.578389e-14 -7.434054e+02 6.856341e-15) (6.870557e-16 3.375786e+01 1.517689e-17))
0.0103634     	((1.269801e+02 1.317700e-14 1.915926e+03) (2.934250e+01 -6.035374e-17 -7.038588e+00)) ((-2.544060e-14 -7.416086e+02 6.935417e-15) (6.879931e-16 3.365015e+01 2.025112e-17))
0.0104228     	((1.267508e+02 1.315696e-14 1.911536e+03) (2.915037e+01 -6.098856e-17 -7.322553e+00)) ((-2.544000e-14 -7.396799e+02 6.940277e-15) (6.922144e-16 3.360566e+01 2.378787e-17))
0.0104831     	((1.276514e+02 1.303434e-14 1.898396e+03) (2.901609e+01 -6.285594e-17 -7.638529e+00)) ((-2.564262e-14 -7.356370e+02 6.901912e-15) (6.992019e-16 3.363504e+01 2.464441e-17))
0.0105441     	((1.280226e+02 1.267515e-14 1.921934e+03) (2.903751e+01 -6.566193e-17 -8.034121e+00)) ((-2.578798e-14 -7.524640e+02 6.711625e-15) (7.085016e-16 3.386724e+01 1.852277e-17))
0.0106059     	((1.267391e+02 1.294263e-14 1.907017e+03) (2.912310e+01 -6.763790e-17 -8.515748e+00)) ((-2.550266e-14 -7.398314e+02 6.866344e-15) (7.197333e-16 3.420832e+01 2.229948e-17))
0.0106685     	((1.266026e+02 1.294856e-14 1.903665e+03) (2.916872e+01 -6.887221e-17 -8.967977e+00)) ((-2.548044e-14 -7.378521e+02 6.878871e-15) (7.296766e-16 3.448721e+01 2.284140e-17))
0.010732      	((1.264114e+02 1.294323e-14 1.901404e+03) (2.918182e+01 -6.926053e-17 -9.408226e+00)) ((-2.544600e-14 -7.375397e+02 6.876263e-15) (7.362634e-16 3.473468e+01 1.953802e-17))
0.0107968     	((1.271789e+02 1.263567e-14 1.918458e+03) (2.921733e+01 -6.968122e-17 -9.842463e+00)) ((-2.563504e-14 -7.515909e+02 6.707254e-15) (7.430532e-16 3.500097e+01 1.433542e-17))
0.0108625     	((1.263289e+02 1.299559e-14 1.891179e+03) (2.921747e+01 -7.033231e-17 -1.025486e+01)) ((-2.540607e-14 -7.313342e+02 6.916005e-15) (7.495062e-16 3.521850e+01 8.310722e-18))
0.0109297     	((1.262435e+02 1.308602e-14 1.880779e+03) (2.923907e+01 -7.054917e-17 -1.067279e+01)) ((-2.534655e-14 -7.243932e+02 6.977133e-15) (7.561123e-16 3.545602e+01 1.333788e-18))
0.0109918     	((1.259225e+02 1.298651e-14 1.891723e+03) (2.938406e+01 -6.929243e-17 -1.101873e+01)) ((-2.535499e-14 -7.311773e+02 6.921742e-15) (7.591179e-16 3.579777e+01 -9.196136e-18))
0.0110503     	((1.263429e+02 1.295004e-14 1.889878e+03) (2.945135e+01 -6.943308e-17 -1.133901e+01)) ((-2.546767e-14 -7.303696e+02 6.912325e-15) (7.625411e-16 3.603856e+01 -1.540521e-17))
0.0111121     	((1.258580e+02 1.302532e-14 1.883516e+03) (2.949761e+01 -7.106922e-17 -1.166022e+01)) ((-2.534124e-14 -7.260144e+02 6.955115e-15) (7.670295e-16 3.625446e+01 -2.263718e-17))
0.0111738     	((1.255914e+02 1.305533e-14 1.878202e+03) (2.954590e+01 -7.107188e-17 -1.195384e+01)) ((-2.530073e-14 -7.231695e+02 6.970152e-15) (7.689967e-16 3.646082e+01 -3.134001e-17))
0.0112351     	((1.254824e+02 1.302737e-14 1.876302e+03) (2.958042e+01 -7.022287e-17 -1.223322e+01)) ((-2.528638e-14 -7.232235e+02 6.947127e-15) (7.718983e-16 3.664170e+01 -3.268437e-17))
0.0112964     	((1.256236e+02 1.287844e-14 1.885344e+03) (2.957990e+01 -6.953346e-17 -1.246550e+01)) ((-2.532527e-14 -7.307571e+02 6.859992e-15) (7.710400e-16 3.677359e+01 -4.081352e-17))
0.0113572     	((1.249296e+02 1.298769e-14 1.883315e+03) (2.957360e+01 -6.898598e-17 -1.268602e+01)) ((-2.517006e-14 -7.287042e+02 6.905800e-15) (7.713271e-16 3.689263e+01 -4.477207e-17))
0.0114181     	((1.249430e+02 1.332902e-14 1.862785e+03) (2.955506e+01 -6.843047e-17 -1.289772e+01)) ((-2.498299e-14 -7.176123e+02 7.047564e-15) (7.717853e-16 3.699126e+01 -5.258175e-17))
0.0114785     	((1.394100e+02 2.089741e-14 1.278849e+03) (2.957239e+01 -6.795139e-17 -1.308330e+01)) ((-3.062311e-14 -5.464253e+02 9.392697e-15) (7.718417e-16 3.712028e+01 -5.432448e-17))
0.011539      	((1.394266e+02 2.069276e-14 1.293480e+03) (2.956107e+01 -6.772456e-17 -1.324329e+01)) ((-3.071084e-14 -5.503019e+02 9.332171e-15) (7.709064e-16 3.720791e+01 -5.703787e-17))
0.011599      	((1.274698e+02 1.337061e-14 1.833476e+03) (2.950948e+01 -6.771329e-17 -1.340092e+01)) ((-2.547243e-14 -7.086491e+02 7.056445e-15) (7.710567e-16 3.724611e+01 -5.978376e-17))
0.011659      	((1.271075e+02 1.322688e-14 1.842291e+03) (2.947380e+01 -6.761409e-17 -1.352403e+01)) ((-2.533444e-14 -7.137587e+02 6.987858e-15) (7.670664e-16 3.729869e+01 -6.285213e-17))
0.0117177     	((1.272383e+02 1.304906e-14 1.854341e+03) (2.939011e+01 -6.819187e-17 -1.363833e+01)) ((-2.530877e-14 -7.217679e+02 6.892190e-15) (7.622769e-16 3.729583e+01 -7.263419e-17))
0.0117761     	((1.262298e+02 1.321465e-14 1.843179e+03) (2.931929e+01 -6.962433e-17 -1.374052e+01)) ((-2.500373e-14 -7.122912e+02 6.990500e-15) (7.587619e-16 3.730393e+01 -7.549422e-17))
0.0118344     	((1.267708e+02 1.322218e-14 1.829714e+03) (2.918953e+01 -7.132999e-17 -1.381943e+01)) ((-2.505721e-14 -7.077749e+02 6.991877e-15) (7.531258e-16 3.724737e+01 -8.727774e-17))
0.0118927     	((1.261027e+02 1.316368e-14 1.836221e+03) (2.909482e+01 -7.333605e-17 -1.391839e+01)) ((-2.482651e-14 -7.106424e+02 6.964279e-15) (7.499518e-16 3.723274e+01 -9.197766e-17))
0.011951      	((1.257084e+02 1.313568e-14 1.839504e+03) (2.897346e+01 -7.547908e-17 -1.399821e+01)) ((-2.466902e-14 -7.121741e+02 6.946649e-15) (7.445679e-16 3.719249e+01 -9.827807e-17))
0.0120094     	((1.250807e+02 1.314688e-14 1.837033e+03) (2.884201e+01 -7.764145e-17 -1.408326e+01)) ((-2.449670e-14 -7.111768e+02 6.948636e-15) (7.400825e-16 3.715185e+01 -1.070294e-16))
0.0120673     	((1.267045e+02 1.298468e-14 1.830648e+03) (2.869475e+01 -7.989429e-17 -1.418465e+01)) ((-2.479480e-14 -7.128211e+02 6.862133e-15) (7.368613e-16 3.710582e+01 -1.141581e-16))
0.0121247     	((1.258454e+02 1.303236e-14 1.837080e+03) (2.857007e+01 -8.201435e-17 -1.433333e+01)) ((-2.477508e-14 -7.137507e+02 6.885917e-15) (7.361623e-16 3.710234e+01 -1.138352e-16))
0.0121818     	((1.257811e+02 1.304455e-14 1.836755e+03) (2.845495e+01 -8.371104e-17 -1.450502e+01)) ((-2.497570e-14 -7.141723e+02 6.886019e-15) (7.345760e-16 3.712674e+01 -1.245570e-16))
0.0122385     	((1.247416e+02 1.294888e-14 1.854257e+03) (2.841611e+01 -8.486716e-17 -1.476496e+01)) ((-2.487119e-14 -7.223477e+02 6.832902e-15) (7.353181e-16 3.726303e+01 -1.212149e-16))
0.0122947     	((1.247108e+02 1.305170e-14 1.842114e+03) (2.846055e+01 -8.531864e-17 -1.504168e+01)) ((-2.490983e-14 -7.138844e+02 6.899354e-15) (7.325799e-16 3.750394e+01 -1.222672e-16))
0.0123568     	((1.249493e+02 1.316988e-14 1.821668e+03) (2.844328e+01 -8.539895e-17 -1.534707e+01)) ((-2.492789e-14 -7.016093e+02 6.977656e-15) (7.295516e-16 3.770682e+01 -1.231836e-16))
0.0124195     	((1.246909e+02 1.320938e-14 1.816145e+03) (2.843375e+01 -8.539743e-17 -1.566880e+01)) ((-2.490912e-14 -6.975606e+02 7.001414e-15) (7.272638e-16 3.791447e+01 -1.194885e-16))
0.0124832     	((1.250241e+02 1.320985e-14 1.805137e+03) (2.839882e+01 -8.515791e-17 -1.595884e+01)) ((-2.505366e-14 -6.938587e+02 6.998449e-15) (7.257616e-16 3.808319e+01 -1.228553e-16))
0.0125474     	((1.251792e+02 1.310201e-14 1.808684e+03) (2.838847e+01 -8.451664e-17 -1.626046e+01)) ((-2.513393e-14 -6.965475e+02 6.943279e-15) (7.271118e-16 3.826837e+01 -1.175439e-16))
0.0126122     	((1.246625e+02 1.302511e-14 1.815736e+03) (2.839351e+01 -8.342024e-17 -1.652300e+01)) ((-2.510440e-14 -7.006904e+02 6.890062e-15) (7.263106e-16 3.845020e+01 -1.122785e-16))
0.0126686     	((1.238919e+02 1.303749e-14 1.825758e+03) (2.839182e+01 -8.232838e-17 -1.674624e+01)) ((-2.503285e-14 -7.031285e+02 6.892519e-15) (7.275163e-16 3.858722e+01 -1.071092e-16))
0.0127313     	((1.239411e+02 1.293497e-14 1.823558e+03) (2.840126e+01 -8.034884e-17 -1.696668e+01)) ((-2.511721e-14 -7.064983e+02 6.828386e-15) (7.282376e-16 3.872585e+01 -1.082551e-16))
0.0127986     	((1.238053e+02 1.311993e-14 1.803194e+03) (2.844546e+01 -7.762228e-17 -1.718484e+01)) ((-2.502122e-14 -6.924018e+02 6.947379e-15) (7.311654e-16 3.888351e+01 -1.012843e-16))
0.0128672     	((1.248998e+02 1.304814e-14 1.794297e+03) (2.848017e+01 -7.431544e-17 -1.735065e+01)) ((-2.528295e-14 -6.895153e+02 6.914926e-15) (7.339385e-16 3.900261e+01 -1.049064e-16))
0.0129371     	((1.242795e+02 1.307491e-14 1.794561e+03) (2.851522e+01 -7.098044e-17 -1.749210e+01)) ((-2.527301e-14 -6.897110e+02 6.913124e-15) (7.382220e-16 3.909464e+01 -1.032889e-16))
0.0130085     	((1.236423e+02 1.312864e-14 1.790083e+03) (2.857843e+01 -6.755716e-17 -1.761036e+01)) ((-2.513204e-14 -6.849414e+02 6.948913e-15) (7.457704e-16 3.918910e+01 -9.965305e-17))
0.0130763     	((1.233928e+02 1.309593e-14 1.793476e+03) (2.865118e+01 -6.399692e-17 -1.766420e+01)) ((-2.512146e-14 -6.861914e+02 6.928770e-15) (7.496852e-16 3.926837e+01 -9.746136e-17))
0.0131186     	((1.235106e+02 1.279105e-14 1.833325e+03) (2.869441e+01 -6.150415e-17 -1.769411e+01)) ((-2.540581e-14 -7.078750e+02 6.744281e-15) (7.520642e-16 3.931121e+01 -9.429624e-17))
0.0131667     	((1.234228e+02 1.281478e-14 1.819468e+03) (2.875412e+01 -5.838082e-17 -1.772155e+01)) ((-2.540391e-14 -7.022484e+02 6.756002e-15) (7.558665e-16 3.935611e+01 -9.050619e-17))
0.0132222     	((1.226576e+02 1.292238e-14 1.807037e+03) (2.880778e+01 -5.464368e-17 -1.771918e+01)) ((-2.520780e-14 -6.941304e+02 6.817895e-15) (7.598338e-16 3.937723e+01 -9.049024e-17))