# Forces      
# CofR        : (0.000000e+00 0.000000e+00 -1.000000e+00)
# Time        forces(pressure viscous)	moments(pressure viscous)
0             	((2.842171e-14 8.429467e-17 3.979039e-13) (5.148123e+00 -1.631347e-20 7.729532e-01)) ((1.065814e-14 -5.684342e-14 3.552714e-15) (-3.864766e-02 4.767141e+00 2.574061e-01))
1.19976e-05   	((9.339941e+04 -2.567913e-14 6.122316e+05) (5.188382e+00 -1.745657e-20 7.021893e-01)) ((-3.061158e+04 -1.123401e+05 4.669970e+03) (-3.510946e-02 4.832000e+00 2.594191e-01))
2.63878e-05   	((1.351344e+04 -6.200171e-15 1.053159e+05) (5.198727e+00 -2.027209e-20 6.794655e-01)) ((-5.265795e+03 -2.579819e+04 6.756721e+02) (-3.397327e-02 4.847930e+00 2.599364e-01))
4.36511e-05   	((7.474855e+03 -3.609909e-15 5.960685e+04) (5.216051e+00 -2.371461e-20 6.700840e-01)) ((-2.980343e+03 -1.476810e+04 3.737427e+02) (-3.350420e-02 4.867907e+00 2.608026e-01))
6.43527e-05   	((5.300575e+03 -2.262741e-15 4.047102e+04) (5.240260e+00 -2.343930e-20 6.650039e-01)) ((-2.023551e+03 -9.767848e+03 2.650288e+02) (-3.325020e-02 4.893584e+00 2.620130e-01))
8.91792e-05   	((3.762427e+03 -1.541751e-15 2.872613e+04) (5.269834e+00 -2.278990e-20 6.618969e-01)) ((-1.436307e+03 -7.071463e+03 1.881213e+02) (-3.309484e-02 4.924012e+00 2.634917e-01))
0.000118941   	((2.871460e+03 -1.139141e-15 2.140179e+04) (5.306593e+00 -2.212913e-20 6.588409e-01)) ((-1.070090e+03 -5.226432e+03 1.435730e+02) (-3.294205e-02 4.961490e+00 2.653297e-01))
0.000154634   	((2.375889e+03 -7.470133e-16 1.608143e+04) (5.351673e+00 -2.143497e-20 6.569036e-01)) ((-8.040714e+02 -3.785473e+03 1.187944e+02) (-3.284518e-02 5.006921e+00 2.675837e-01))
0.000197405   	((1.620292e+03 -1.026950e-15 1.450899e+04) (5.406234e+00 -2.339451e-20 6.524057e-01)) ((-7.254497e+02 -4.653000e+03 8.101459e+01) (-3.262028e-02 5.064617e+00 2.703117e-01))
0.000248707   	((1.560322e+03 -6.800112e-16 1.145226e+04) (5.474851e+00 -2.443279e-20 6.500950e-01)) ((-5.726130e+02 -3.206601e+03 7.801610e+01) (-3.250475e-02 5.135050e+00 2.737425e-01))
0.000310237   	((1.498731e+03 -2.195113e-16 7.627778e+03) (5.559574e+00 -2.230989e-20 6.512358e-01)) ((-3.813889e+02 -1.888227e+03 7.493655e+01) (-3.256179e-02 5.220095e+00 2.779787e-01))
0.000383982   	((1.514062e+03 -2.203127e-16 7.517059e+03) (5.671520e+00 -2.168561e-20 6.511402e-01)) ((-3.758529e+02 -1.774747e+03 7.570310e+01) (-3.255701e-02 5.331990e+00 2.835760e-01))
0.000472342   	((1.278207e+03 -1.372668e-16 6.102624e+03) (5.818160e+00 -1.595698e-20 6.576517e-01)) ((-3.051312e+02 -1.281845e+03 6.391036e+01) (-3.288259e-02 5.471868e+00 2.909080e-01))
0.000577897   	((1.600085e+03 9.946928e-17 5.315616e+03) (6.020817e+00 -1.422630e-20 6.579491e-01)) ((-2.657808e+02 -8.023431e+02 8.000425e+01) (-3.289746e-02 5.671109e+00 3.010408e-01))
0.000704014   	((3.247457e+03 2.985582e-16 8.850256e+03) (6.333913e+00 -1.505559e-20 6.389943e-01)) ((-4.425128e+02 -1.625541e+03 1.623728e+02) (-3.194971e-02 5.988627e+00 3.166957e-01))
0.000854764   	((8.679592e+02 -1.330541e-17 3.085994e+03) (6.687487e+00 -1.662282e-20 6.557150e-01)) ((-1.542997e+02 -9.182182e+02 4.339796e+01) (-3.278575e-02 6.337489e+00 3.343744e-01))
0.00103538    	((4.267099e+02 -1.251887e-16 3.054383e+03) (7.133373e+00 -2.592955e-21 6.859764e-01)) ((-1.527191e+02 -8.604282e+02 2.133549e+01) (-3.429882e-02 6.763675e+00 3.566686e-01))
0.00125089    	((6.201128e+02 3.449374e-16 1.514602e+03) (7.643789e+00 5.395933e-21 7.442310e-01)) ((-7.573009e+01 -2.950398e+02 3.100564e+01) (-3.721155e-02 7.247655e+00 3.821895e-01))
0.00150772    	((2.193153e+02 -1.916060e-16 3.351419e+03) (8.194225e+00 1.302401e-20 7.797324e-01)) ((-1.675710e+02 -1.534835e+03 1.096577e+01) (-3.898662e-02 7.788582e+00 4.097113e-01))
0.00180599    	((1.270817e+02 6.910350e-17 3.641101e+03) (8.759010e+00 -4.439728e-21 7.807719e-01)) ((-1.820551e+02 -1.937647e+03 6.354085e+00) (-3.903860e-02 8.373032e+00 4.379505e-01))
0.00208589    	((4.134858e+02 -3.665260e-17 8.326774e+02) (9.245773e+00 -7.004789e-21 8.086673e-01)) ((-4.163387e+01 -7.265314e+01 2.067429e+01) (-4.043336e-02 8.857898e+00 4.622887e-01))
0.00237483    	((2.353113e+02 -2.470384e-17 1.502182e+03) (9.693975e+00 -7.982402e-21 8.264638e-01)) ((-7.510910e+01 -3.456452e+02 1.176556e+01) (-4.132319e-02 9.306564e+00 4.846988e-01))
0.00266858    	((2.066605e+02 -3.659484e-17 1.482549e+03) (1.010533e+01 -8.762588e-21 8.388825e-01)) ((-7.412743e+01 -3.846401e+02 1.033303e+01) (-4.194412e-02 9.719697e+00 5.052664e-01))
0.0029837     	((1.936111e+02 -3.521431e-17 1.330302e+03) (1.049986e+01 -8.955091e-21 8.512458e-01)) ((-6.651509e+01 -3.417404e+02 9.680557e+00) (-4.256229e-02 1.011529e+01 5.249929e-01))
0.00332403    	((2.439955e+02 -9.098431e-17 1.055372e+03) (1.087291e+01 -5.923268e-21 8.805085e-01)) ((-5.276862e+01 -3.227876e+02 1.219977e+01) (-4.402542e-02 1.048253e+01 5.436457e-01))
0.00366435    	((1.275277e+02 -1.754831e-16 2.392450e+03) (1.120850e+01 -3.008084e-21 8.837874e-01)) ((-1.196225e+02 -1.057792e+03 6.376384e+00) (-4.418937e-02 1.082233e+01 5.604251e-01))
0.00401948    	((1.380345e+02 -3.069976e-17 1.101294e+03) (1.151539e+01 3.662108e-21 8.870372e-01)) ((-5.506470e+01 -3.012822e+02 6.901724e+00) (-4.435186e-02 1.113402e+01 5.757693e-01))
0.00436688    	((4.058072e+01 -1.627546e-17 2.363581e+03) (1.177179e+01 -1.525243e-21 8.984890e-01)) ((-1.181790e+02 -1.448248e+03 2.029036e+00) (-4.492445e-02 1.139411e+01 5.885897e-01))
0.00464604    	((1.271600e+02 -3.782888e-17 1.090066e+03) (1.196131e+01 -2.709938e-21 9.013645e-01)) ((-5.450332e+01 -3.418807e+02 6.358002e+00) (-4.506823e-02 1.158664e+01 5.980657e-01))
0.00492022    	((1.197122e+02 -2.603662e-17 1.026116e+03) (1.213027e+01 -9.047506e-22 9.042858e-01)) ((-5.130580e+01 -2.865894e+02 5.985611e+00) (-4.521429e-02 1.175709e+01 6.065136e-01))
0.00519947    	((1.105166e+02 -2.795547e-17 1.001993e+03) (1.228740e+01 1.870171e-22 9.010517e-01)) ((-5.009965e+01 -2.901663e+02 5.525828e+00) (-4.505258e-02 1.191894e+01 6.143698e-01))
0.00547873    	((1.004168e+02 -3.951589e-17 1.055472e+03) (1.243151e+01 2.830455e-21 8.984090e-01)) ((-5.277360e+01 -3.442934e+02 5.020841e+00) (-4.492045e-02 1.206718e+01 6.215753e-01))
0.00576346    	((6.873668e+01 -1.291808e-17 1.545519e+03) (1.255891e+01 -3.066999e-21 9.028993e-01)) ((-7.727595e+01 -8.533040e+02 3.436834e+00) (-4.514496e-02 1.220096e+01 6.279457e-01))
0.00601322    	((7.748463e+01 -4.998268e-17 1.330147e+03) (1.265941e+01 -3.815214e-21 9.007821e-01)) ((-6.650733e+01 -5.408555e+02 3.874232e+00) (-4.503910e-02 1.230671e+01 6.329703e-01))
0.00629296    	((5.246692e+01 -6.119320e-17 1.634358e+03) (1.275744e+01 -4.674947e-21 8.974449e-01)) ((-8.171792e+01 -7.863139e+02 2.623346e+00) (-4.487225e-02 1.241149e+01 6.378720e-01))
0.0065846     	((5.261796e+01 -9.331863e-17 1.988117e+03) (1.285133e+01 -5.338907e-21 8.941872e-01)) ((-9.940584e+01 -1.005953e+03 2.630898e+00) (-4.470936e-02 1.251270e+01 6.425665e-01))
0.00686409    	((8.023919e+01 -1.662156e-17 9.544930e+02) (1.290924e+01 -4.903488e-21 8.851164e-01)) ((-4.772465e+01 -3.261939e+02 4.011960e+00) (-4.425582e-02 1.257757e+01 6.454620e-01))
0.007156      	((7.995746e+01 -1.748515e-17 9.413329e+02) (1.297089e+01 -5.078407e-21 8.739947e-01)) ((-4.706664e+01 -3.210564e+02 3.997873e+00) (-4.369973e-02 1.264664e+01 6.485445e-01))
0.00745469    	((7.848112e+01 -1.682883e-17 9.212307e+02) (1.303836e+01 -4.612853e-21 8.642519e-01)) ((-4.606154e+01 -3.146722e+02 3.924056e+00) (-4.321260e-02 1.272239e+01 6.519178e-01))
0.00776068    	((8.125568e+01 -1.512337e-17 7.545185e+02) (1.309869e+01 -3.680357e-21 8.627125e-01)) ((-3.772592e+01 -2.758733e+02 4.062784e+00) (-4.313563e-02 1.278818e+01 6.549344e-01))
0.00807451    	((6.898420e+01 -2.651758e-17 1.027456e+03) (1.314383e+01 -3.217961e-21 8.558175e-01)) ((-5.137278e+01 -4.013896e+02 3.449210e+00) (-4.279088e-02 1.284091e+01 6.571917e-01))
0.00838833    	((6.678965e+01 -2.905990e-17 1.055246e+03) (1.317908e+01 -2.801270e-21 8.475583e-01)) ((-5.276231e+01 -4.225577e+02 3.339482e+00) (-4.237791e-02 1.288404e+01 6.589539e-01))
0.0086939     	((6.807036e+01 -2.643017e-17 1.013592e+03) (1.320442e+01 -2.186071e-21 8.382859e-01)) ((-5.067960e+01 -3.969761e+02 3.403518e+00) (-4.191430e-02 1.291716e+01 6.602210e-01))
0.00899947    	((7.194350e+01 -1.904214e-17 9.134459e+02) (1.322182e+01 -1.548180e-21 8.279738e-01)) ((-4.567229e+01 -3.316654e+02 3.597175e+00) (-4.139869e-02 1.294241e+01 6.610910e-01))
0.00931378    	((7.162934e+01 -1.833936e-17 8.962310e+02) (1.322965e+01 -1.108851e-21 8.162732e-01)) ((-4.481155e+01 -3.237420e+02 3.581467e+00) (-4.081366e-02 1.295827e+01 6.614823e-01))
0.0096376     	((7.086205e+01 -1.768736e-17 8.845222e+02) (1.323099e+01 -1.070933e-21 8.009117e-01)) ((-4.422611e+01 -3.192027e+02 3.543102e+00) (-4.004559e-02 1.296992e+01 6.615494e-01))
0.00998301    	((6.985094e+01 -1.732482e-17 8.745655e+02) (1.321834e+01 -8.897071e-22 7.823922e-01)) ((-4.372827e+01 -3.162301e+02 3.492547e+00) (-3.911961e-02 1.296906e+01 6.609172e-01))
0.0103408     	((7.053459e+01 -1.632420e-17 7.611020e+02) (1.319418e+01 -4.500594e-22 7.639356e-01)) ((-3.805510e+01 -2.813712e+02 3.526730e+00) (-3.819678e-02 1.295652e+01 6.597088e-01))
0.0107271     	((6.878266e+01 -1.650025e-17 8.403891e+02) (1.315735e+01 -2.996666e-22 7.411631e-01)) ((-4.201946e+01 -3.062236e+02 3.439133e+00) (-3.705815e-02 1.293275e+01 6.578675e-01))
0.0111303     	((6.756746e+01 -1.623878e-17 8.499434e+02) (1.310934e+01 1.068820e-21 7.156850e-01)) ((-4.249717e+01 -3.098209e+02 3.378373e+00) (-3.578425e-02 1.289822e+01 6.554672e-01))
0.0115738     	((6.685034e+01 -1.601625e-17 8.427532e+02) (1.304818e+01 2.834677e-21 6.871540e-01)) ((-4.213766e+01 -3.086304e+02 3.342517e+00) (-3.435770e-02 1.285111e+01 6.524090e-01))
0.0120173     	((6.618418e+01 -1.571547e-17 8.330618e+02) (1.299012e+01 3.911408e-21 6.572615e-01)) ((-4.165309e+01 -3.041397e+02 3.309209e+00) (-3.286308e-02 1.280744e+01 6.495059e-01))
0.0124608     	((6.577869e+01 -1.528990e-17 8.272492e+02) (1.293332e+01 4.660062e-21 6.280182e-01)) ((-4.136246e+01 -3.027212e+02 3.288934e+00) (-3.140091e-02 1.276424e+01 6.466662e-01))
0.0129042     	((6.388786e+01 -1.539004e-17 8.418889e+02) (1.287220e+01 4.884528e-21 6.010499e-01)) ((-4.209444e+01 -3.159520e+02 3.194393e+00) (-3.005249e-02 1.271525e+01 6.436100e-01))
0.0133477     	((6.203799e+01 -1.502686e-17 8.537962e+02) (1.281033e+01 4.433575e-21 5.754103e-01)) ((-4.268981e+01 -3.277244e+02 3.101899e+00) (-2.877052e-02 1.266393e+01 6.405166e-01))
0.0137912     	((6.299009e+01 -1.465649e-17 7.740041e+02) (1.275546e+01 4.479778e-21 5.541735e-01)) ((-3.870021e+01 -2.939024e+02 3.149504e+00) (-2.770867e-02 1.261770e+01 6.377730e-01))
0.0142347     	((6.328328e+01 -1.424524e-17 7.961021e+02) (1.270030e+01 3.874825e-21 5.344304e-01)) ((-3.980511e+01 -2.980707e+02 3.164164e+00) (-2.672152e-02 1.257079e+01 6.350151e-01))
0.0146782     	((6.270004e+01 -1.463488e-17 8.175248e+02) (1.264173e+01 3.437543e-21 5.143219e-01)) ((-4.087624e+01 -3.079083e+02 3.135002e+00) (-2.571610e-02 1.252061e+01 6.320866e-01))
0.0151217     	((6.195116e+01 -1.478877e-17 8.186302e+02) (1.257790e+01 2.964783e-21 4.944406e-01)) ((-4.093151e+01 -3.094988e+02 3.097558e+00) (-2.472203e-02 1.246484e+01 6.288950e-01))
0.0155652     	((6.170016e+01 -1.506093e-17 8.132708e+02) (1.251028e+01 2.180101e-21 4.749983e-01)) ((-4.066354e+01 -3.063827e+02 3.085008e+00) (-2.374992e-02 1.240496e+01 6.255139e-01))
0.0160086     	((6.164202e+01 -1.542272e-17 8.076893e+02) (1.244306e+01 1.692000e-21 4.553966e-01)) ((-4.038447e+01 -3.051921e+02 3.082101e+00) (-2.276983e-02 1.234581e+01 6.221530e-01))
0.0164521     	((6.135322e+01 -1.510074e-17 8.048393e+02) (1.237473e+01 1.447690e-21 4.351101e-01)) ((-4.024196e+01 -3.031849e+02 3.067661e+00) (-2.175551e-02 1.228578e+01 6.187366e-01))
0.0168956     	((6.095164e+01 -1.553513e-17 8.026163e+02) (1.230620e+01 1.873695e-21 4.105874e-01)) ((-4.013081e+01 -3.039951e+02 3.047582e+00) (-2.052937e-02 1.222739e+01 6.153102e-01))
0.0173391     	((5.917234e+01 -1.708584e-17 7.390400e+02) (1.223127e+01 4.407262e-21 3.935849e-01)) ((-3.695200e+01 -2.855811e+02 2.958617e+00) (-1.967925e-02 1.215923e+01 6.115633e-01))
0.0177826     	((6.019891e+01 -1.640962e-17 7.983772e+02) (1.215648e+01 7.909683e-21 3.727206e-01)) ((-3.991886e+01 -3.035775e+02 3.009945e+00) (-1.863603e-02 1.209317e+01 6.078240e-01))
0.0182261     	((6.069744e+01 -1.618391e-17 7.883166e+02) (1.208452e+01 1.019198e-20 3.520581e-01)) ((-3.941583e+01 -2.967703e+02 3.034872e+00) (-1.760291e-02 1.203013e+01 6.042259e-01))
0.0186695     	((6.047346e+01 -1.635302e-17 7.862090e+02) (1.201230e+01 1.232539e-20 3.317906e-01)) ((-3.931045e+01 -2.966796e+02 3.023673e+00) (-1.658953e-02 1.196652e+01 6.006150e-01))
0.019113      	((5.991794e+01 -1.638490e-17 7.897499e+02) (1.194157e+01 1.543995e-20 3.118794e-01)) ((-3.948749e+01 -2.998725e+02 2.995897e+00) (-1.559397e-02 1.190416e+01 5.970785e-01))
0.0195565     	((5.908159e+01 -1.630234e-17 7.966184e+02) (1.187305e+01 1.969240e-20 2.924367e-01)) ((-3.983092e+01 -3.047939e+02 2.954079e+00) (-1.462184e-02 1.184368e+01 5.936525e-01))
0.02          	((5.880366e+01 -1.630272e-17 7.947355e+02) (1.180348e+01 2.281293e-20 2.751075e-01)) ((-3.973677e+01 -3.044916e+02 2.940183e+00) (-1.375537e-02 1.178040e+01 5.901738e-01))
0.0204545     	((5.909096e+01 -1.613636e-17 7.866433e+02) (1.173678e+01 2.369790e-20 2.572442e-01)) ((-3.933217e+01 -2.997070e+02 2.954548e+00) (-1.286221e-02 1.171925e+01 5.868389e-01))
0.0209091     	((5.769473e+01 -1.681907e-17 7.137096e+02) (1.166951e+01 2.336985e-20 2.505511e-01)) ((-3.568548e+01 -2.723476e+02 2.884737e+00) (-1.252755e-02 1.165094e+01 5.834756e-01))
0.0213636     	((5.920127e+01 -1.578045e-17 7.735520e+02) (1.160303e+01 2.219658e-20 2.429308e-01)) ((-3.867760e+01 -2.928194e+02 2.960064e+00) (-1.214654e-02 1.158250e+01 5.801516e-01))
0.0218182     	((5.867182e+01 -1.647732e-17 7.805534e+02) (1.153633e+01 2.061674e-20 2.371257e-01)) ((-3.902767e+01 -2.981360e+02 2.933591e+00) (-1.185629e-02 1.151231e+01 5.768166e-01))
0.0222727     	((5.860286e+01 -1.560635e-17 7.786260e+02) (1.146364e+01 1.988584e-20 2.325083e-01)) ((-3.893130e+01 -2.954949e+02 2.930143e+00) (-1.162541e-02 1.143530e+01 5.731819e-01))
0.0227273     	((5.829281e+01 -1.580040e-17 7.772712e+02) (1.138169e+01 2.068945e-20 2.291445e-01)) ((-3.886356e+01 -2.959781e+02 2.914640e+00) (-1.145722e-02 1.134834e+01 5.690847e-01))
0.0231818     	((5.803050e+01 -1.576847e-17 7.800498e+02) (1.128838e+01 2.268750e-20 2.263026e-01)) ((-3.900249e+01 -2.980656e+02 2.901525e+00) (-1.131513e-02 1.125001e+01 5.644188e-01))
0.0236364     	((5.776966e+01 -1.584233e-17 7.788141e+02) (1.118863e+01 2.498401e-20 2.225662e-01)) ((-3.894070e+01 -2.986467e+02 2.888483e+00) (-1.112831e-02 1.114630e+01 5.594314e-01))
0.0240909     	((5.770594e+01 -1.557761e-17 7.750281e+02) (1.109402e+01 2.331810e-20 2.132185e-01)) ((-3.875140e+01 -2.968459e+02 2.885297e+00) (-1.066093e-02 1.105139e+01 5.547012e-01))
0.0245455     	((5.518409e+01 -1.656018e-17 7.103244e+02) (1.099903e+01 1.986492e-20 2.125337e-01)) ((-3.551622e+01 -2.740349e+02 2.759204e+00) (-1.062669e-02 1.095220e+01 5.499515e-01))
0.025         	((5.705865e+01 -1.581510e-17 7.793593e+02) (1.090650e+01 1.899664e-20 2.076442e-01)) ((-3.896796e+01 -3.002812e+02 2.852932e+00) (-1.038221e-02 1.085769e+01 5.453248e-01))
0.0254545     	((5.685515e+01 -1.554095e-17 7.797463e+02) (1.081742e+01 1.836878e-20 2.031199e-01)) ((-3.898732e+01 -3.003113e+02 2.842758e+00) (-1.015599e-02 1.076668e+01 5.408712e-01))
0.0259091     	((5.659516e+01 -1.566514e-17 7.816867e+02) (1.072998e+01 1.764778e-20 1.987150e-01)) ((-3.908433e+01 -3.020579e+02 2.829758e+00) (-9.935752e-03 1.067755e+01 5.364988e-01))
0.0263636     	((5.647415e+01 -1.532919e-17 7.810530e+02) (1.064294e+01 1.575405e-20 1.945815e-01)) ((-3.905265e+01 -3.018838e+02 2.823708e+00) (-9.729074e-03 1.058900e+01 5.321472e-01))
0.0268182     	((5.606300e+01 -1.577264e-17 7.834891e+02) (1.055390e+01 1.037130e-20 1.906725e-01)) ((-3.917446e+01 -3.049116e+02 2.803150e+00) (-9.533624e-03 1.049843e+01 5.276951e-01))
0.0272727     	((5.579847e+01 -1.572485e-17 7.841150e+02) (1.045934e+01 9.717951e-21 1.851621e-01)) ((-3.920575e+01 -3.058816e+02 2.789924e+00) (-9.258103e-03 1.040339e+01 5.229669e-01))
0.0277273     	((5.330432e+01 -1.695678e-17 7.390061e+02) (1.035917e+01 1.250021e-20 1.796693e-01)) ((-3.695030e+01 -2.901477e+02 2.665216e+00) (-8.983467e-03 1.030280e+01 5.179583e-01))
0.0281818     	((5.395704e+01 -1.677242e-17 7.584016e+02) (1.025128e+01 1.161646e-20 1.773041e-01)) ((-3.792008e+01 -2.978800e+02 2.697852e+00) (-8.865205e-03 1.019301e+01 5.125641e-01))
0.0286364     	((5.484920e+01 -1.687957e-17 7.923082e+02) (1.013846e+01 7.752781e-21 1.721224e-01)) ((-3.961541e+01 -3.118599e+02 2.742460e+00) (-8.606119e-03 1.008031e+01 5.069231e-01))
0.0290909     	((5.421692e+01 -1.794878e-17 7.974512e+02) (1.002442e+01 2.913151e-21 1.660057e-01)) ((-3.987256e+01 -3.161437e+02 2.710846e+00) (-8.300285e-03 9.967466e+00 5.012212e-01))
0.0295455     	((5.434130e+01 -1.783710e-17 7.962431e+02) (9.915302e+00 1.321959e-21 1.591762e-01)) ((-3.981216e+01 -3.146858e+02 2.717065e+00) (-7.958809e-03 9.860331e+00 4.957651e-01))
0.03          	((5.424100e+01 -1.798836e-17 7.956375e+02) (9.807306e+00 6.985285e-21 1.510354e-01)) ((-3.978188e+01 -3.147028e+02 2.712050e+00) (-7.551770e-03 9.755848e+00 4.903653e-01))
0.0304545     	((5.360755e+01 -1.870315e-17 7.989979e+02) (9.695707e+00 4.963166e-21 1.390852e-01)) ((-3.994989e+01 -3.187067e+02 2.680378e+00) (-6.954262e-03 9.651410e+00 4.847853e-01))
0.0309091     	((5.295064e+01 -1.838616e-17 7.805037e+02) (9.591493e+00 -1.182079e-22 1.175231e-01)) ((-3.902518e+01 -3.104231e+02 2.647532e+00) (-5.876155e-03 9.562008e+00 4.795747e-01))
0.0313636     	((5.001634e+01 -1.942662e-17 7.303627e+02) (9.492515e+00 -4.049423e-21 1.010571e-01)) ((-3.651813e+01 -2.915674e+02 2.500817e+00) (-5.052854e-03 9.476304e+00 4.746257e-01))
0.0318182     	((5.337206e+01 -1.778776e-17 7.970575e+02) (9.398397e+00 -7.290165e-23 7.954625e-02)) ((-3.985288e+01 -3.177165e+02 2.668603e+00) (-3.977313e-03 9.398710e+00 4.699198e-01))
0.0322727     	((5.313400e+01 -1.742768e-17 8.013131e+02) (9.309958e+00 2.540599e-21 5.851338e-02)) ((-4.006566e+01 -3.202858e+02 2.656700e+00) (-2.925669e-03 9.326367e+00 4.654979e-01))
0.032702      	((5.297926e+01 -1.683106e-17 8.035819e+02) (9.229889e+00 4.798454e-21 3.759143e-02)) ((-4.017909e+01 -3.214140e+02 2.648963e+00) (-1.879571e-03 9.262632e+00 4.614945e-01))
0.0331313     	((5.273919e+01 -1.632117e-17 8.041697e+02) (9.150723e+00 -1.255578e-22 1.466858e-02)) ((-4.020848e+01 -3.219209e+02 2.636960e+00) (-7.334290e-04 9.201714e+00 4.575361e-01))
0.0335606     	((5.254617e+01 -1.583556e-17 8.055763e+02) (9.073289e+00 -1.357365e-20 -8.584565e-03)) ((-4.027882e+01 -3.224579e+02 2.627308e+00) (4.292282e-04 9.142804e+00 4.536644e-01))
0.0339899     	((5.204965e+01 -1.586975e-17 8.064109e+02) (9.000551e+00 -3.462195e-20 -3.477959e-02)) ((-4.032055e+01 -3.238723e+02 2.602482e+00) (1.738979e-03 9.090232e+00 4.500276e-01))
0.0344192     	((4.677303e+01 -1.614274e-17 7.154339e+02) (8.923292e+00 -6.010647e-20 -6.206329e-02)) ((-3.577170e+01 -2.860607e+02 2.338652e+00) (3.103164e-03 9.036644e+00 4.461646e-01))
0.0348485     	((5.170026e+01 -1.601323e-17 8.084147e+02) (8.838172e+00 -7.161723e-20 -9.559560e-02)) ((-4.042073e+01 -3.263246e+02 2.585013e+00) (4.779780e-03 8.979816e+00 4.419086e-01))
0.0352778     	((5.177817e+01 -1.586072e-17 8.091456e+02) (8.752941e+00 -8.187215e-20 -1.304913e-01)) ((-4.045728e+01 -3.266334e+02 2.588909e+00) (6.524564e-03 8.924142e+00 4.376471e-01))
0.0357071     	((5.142601e+01 -1.597302e-17 8.113176e+02) (8.671799e+00 -9.125602e-20 -1.655444e-01)) ((-4.056588e+01 -3.287000e+02 2.571300e+00) (8.277222e-03 8.872673e+00 4.335899e-01))
0.0361364     	((5.163324e+01 -1.562451e-17 8.126359e+02) (8.596135e+00 -9.975920e-20 -1.999599e-01)) ((-4.063179e+01 -3.287269e+02 2.581662e+00) (9.997994e-03 8.826074e+00 4.298068e-01))
0.0365657     	((5.116426e+01 -1.572247e-17 8.147191e+02) (8.525243e+00 -1.071798e-19 -2.335623e-01)) ((-4.073595e+01 -3.308882e+02 2.558213e+00) (1.167812e-02 8.783488e+00 4.262621e-01))
0.0369949     	((5.078086e+01 -1.559456e-17 8.147137e+02) (8.459268e+00 -1.134105e-19 -2.667849e-01)) ((-4.073569e+01 -3.315288e+02 2.539043e+00) (1.333924e-02 8.745435e+00 4.229634e-01))
0.0374242     	((5.044676e+01 -1.502537e-17 8.061090e+02) (8.404869e+00 -1.183196e-19 -3.058131e-01)) ((-4.030545e+01 -3.267514e+02 2.522338e+00) (1.529065e-02 8.722379e+00 4.202435e-01))
0.0378535     	((4.538133e+01 -1.498684e-17 7.351511e+02) (8.349052e+00 -1.227046e-19 -3.320008e-01)) ((-3.675756e+01 -2.964314e+02 2.269066e+00) (1.660004e-02 8.690079e+00 4.174526e-01))
0.0382828     	((5.075215e+01 -1.465411e-17 8.248543e+02) (8.293996e+00 -1.260443e-19 -3.625407e-01)) ((-4.124272e+01 -3.362771e+02 2.537608e+00) (1.812703e-02 8.660592e+00 4.146998e-01))
0.0387121     	((5.042963e+01 -1.430055e-17 8.296563e+02) (8.243079e+00 -1.281796e-19 -3.921312e-01)) ((-4.148282e+01 -3.392050e+02 2.521481e+00) (1.960656e-02 8.634254e+00 4.121540e-01))
0.0391414     	((4.965168e+01 -1.403708e-17 8.256404e+02) (8.195650e+00 -1.291740e-19 -4.194116e-01)) ((-4.128202e+01 -3.383446e+02 2.482584e+00) (2.097058e-02 8.609286e+00 4.097825e-01))
0.0395707     	((4.969945e+01 -1.385845e-17 8.342572e+02) (8.152296e+00 -1.289548e-19 -4.442139e-01)) ((-4.171286e+01 -3.432172e+02 2.484973e+00) (2.221069e-02 8.586016e+00 4.076148e-01))
0.04          	((4.926793e+01 -1.368326e-17 8.343331e+02) (8.113143e+00 -1.268138e-19 -4.658282e-01)) ((-4.171666e+01 -3.443165e+02 2.463396e+00) (2.329141e-02 8.563828e+00 4.056571e-01))
0.0404444     	((4.874037e+01 -1.376570e-17 8.314709e+02) (8.081898e+00 -1.217586e-19 -4.875711e-01)) ((-4.157355e+01 -3.438884e+02 2.437019e+00) (2.437856e-02 8.548382e+00 4.040949e-01))
0.0408889     	((4.156934e+01 -3.880811e-17 7.348167e+02) (8.055297e+00 -1.212884e-19 -4.988178e-01)) ((-3.674083e+01 -3.008539e+02 2.078467e+00) (2.494089e-02 8.529774e+00 4.027649e-01))
0.0413333     	((4.876951e+01 -1.296513e-17 8.399810e+02) (8.031148e+00 -1.174258e-19 -5.083062e-01)) ((-4.199905e+01 -3.487319e+02 2.438476e+00) (2.541531e-02 8.510572e+00 4.015574e-01))
0.0417778     	((4.848711e+01 -1.280119e-17 8.381118e+02) (8.012606e+00 -1.115891e-19 -5.133356e-01)) ((-4.190559e+01 -3.483070e+02 2.424356e+00) (2.566678e-02 8.492517e+00 4.006303e-01))
0.0422222     	((4.778251e+01 -1.447900e-17 8.313330e+02) (7.998605e+00 -1.019833e-19 -5.149217e-01)) ((-4.156665e+01 -3.453752e+02 2.389126e+00) (2.574609e-02 8.475464e+00 3.999302e-01))
0.0426667     	((4.804813e+01 -1.352414e-17 8.378296e+02) (7.983512e+00 -9.442564e-20 -5.131487e-01)) ((-4.189148e+01 -3.485052e+02 2.402407e+00) (2.565744e-02 8.453804e+00 3.991756e-01))
0.0431111     	((4.795530e+01 -1.403769e-17 8.385672e+02) (7.965625e+00 -8.660390e-20 -5.089455e-01)) ((-4.192836e+01 -3.490735e+02 2.397765e+00) (2.544728e-02 8.426733e+00 3.982813e-01))
0.0435556     	((4.739063e+01 -1.548009e-17 8.339557e+02) (7.951808e+00 -7.887515e-20 -5.089931e-01)) ((-4.169778e+01 -3.472756e+02 2.369531e+00) (2.544966e-02 8.405460e+00 3.975904e-01))
0.044         	((4.035361e+01 -2.581589e-17 7.455892e+02) (7.942090e+00 -7.493816e-20 -5.016994e-01)) ((-3.727946e+01 -3.056293e+02 2.017680e+00) (2.508497e-02 8.383132e+00 3.971045e-01))
0.0444444     	((4.641974e+01 -1.650377e-17 8.284347e+02) (7.930335e+00 -7.226937e-20 -4.959470e-01)) ((-4.142173e+01 -3.450407e+02 2.320987e+00) (2.479735e-02 8.358877e+00 3.965168e-01))
0.0448889     	((4.745350e+01 -1.485396e-17 8.453372e+02) (7.922182e+00 -6.954015e-20 -4.918456e-01)) ((-4.226686e+01 -3.532204e+02 2.372675e+00) (2.459228e-02 8.338825e+00 3.961091e-01))
0.0453333     	((4.715333e+01 -1.520863e-17 8.444458e+02) (7.917886e+00 -6.569895e-20 -4.893207e-01)) ((-4.222229e+01 -3.532300e+02 2.357666e+00) (2.446604e-02 8.323230e+00 3.958943e-01))
0.0457778     	((4.714652e+01 -1.506048e-17 8.476237e+02) (7.921285e+00 -6.164968e-20 -4.885508e-01)) ((-4.238118e+01 -3.551829e+02 2.357326e+00) (2.442754e-02 8.316445e+00 3.960643e-01))
0.0462222     	((4.686347e+01 -1.539724e-17 8.468903e+02) (7.929708e+00 -5.784229e-20 -4.899001e-01)) ((-4.234452e+01 -3.553681e+02 2.343173e+00) (2.449501e-02 8.315909e+00 3.964854e-01))
0.0466667     	((4.652406e+01 -1.589927e-17 8.462755e+02) (7.947595e+00 -5.476975e-20 -4.955767e-01)) ((-4.231377e+01 -3.555936e+02 2.326203e+00) (2.477883e-02 8.327448e+00 3.973797e-01))
0.0471111     	((3.794680e+01 -2.499928e-17 7.440142e+02) (7.977419e+00 -5.095918e-20 -5.022441e-01)) ((-3.720071e+01 -3.064249e+02 1.897340e+00) (2.511221e-02 8.351096e+00 3.988710e-01))
0.0475556     	((4.414707e+01 -1.865099e-17 8.261681e+02) (8.008263e+00 -4.669488e-20 -5.054318e-01)) ((-4.130840e+01 -3.466202e+02 2.207353e+00) (2.527159e-02 8.372442e+00 4.004132e-01))
0.048         	((4.581238e+01 -1.746362e-17 8.513020e+02) (8.049235e+00 -4.237677e-20 -5.097163e-01)) ((-4.256510e+01 -3.590042e+02 2.290619e+00) (2.548582e-02 8.403413e+00 4.024617e-01))
0.0484444     	((4.574704e+01 -1.812330e-17 8.555911e+02) (8.107502e+00 -3.733687e-20 -5.127707e-01)) ((-4.277955e+01 -3.612175e+02 2.287352e+00) (2.563854e-02 8.449533e+00 4.053751e-01))
0.0488889     	((4.561167e+01 -1.865162e-17 8.592881e+02) (8.180602e+00 -3.236842e-20 -5.155963e-01)) ((-4.296440e+01 -3.632905e+02 2.280583e+00) (2.577981e-02 8.509285e+00 4.090301e-01))
0.0493333     	((4.553756e+01 -1.828581e-17 8.627836e+02) (8.249691e+00 -2.850644e-20 -5.207866e-01)) ((-4.313918e+01 -3.654548e+02 2.276878e+00) (2.603933e-02 8.566126e+00 4.124846e-01))
0.0497778     	((4.527118e+01 -1.815916e-17 8.634501e+02) (8.314604e+00 -2.548848e-20 -5.273109e-01)) ((-4.317251e+01 -3.663455e+02 2.263559e+00) (2.636555e-02 8.619048e+00 4.157302e-01))
0.0502222     	((4.428471e+01 -1.896992e-17 8.557884e+02) (8.382903e+00 -2.512042e-20 -5.366862e-01)) ((-4.278942e+01 -3.635044e+02 2.214235e+00) (2.683431e-02 8.676988e+00 4.191452e-01))
0.0506667     	((3.444491e+01 -2.614526e-17 7.458439e+02) (8.459450e+00 -1.668346e-20 -5.446037e-01)) ((-3.729220e+01 -3.084283e+02 1.722246e+00) (2.723019e-02 8.741786e+00 4.229725e-01))
0.0511111     	((4.374845e+01 -1.874939e-17 8.582827e+02) (8.533148e+00 -1.318508e-20 -5.554461e-01)) ((-4.291413e+01 -3.657666e+02 2.187423e+00) (2.777230e-02 8.804911e+00 4.266574e-01))
0.0515556     	((4.398732e+01 -1.844160e-17 8.652918e+02) (8.610849e+00 -1.014704e-20 -5.698920e-01)) ((-4.326459e+01 -3.698968e+02 2.199366e+00) (2.849460e-02 8.874070e+00 4.305425e-01))
0.052         	((4.372914e+01 -1.846531e-17 8.669834e+02) (8.691456e+00 -7.429324e-21 -5.869833e-01)) ((-4.334917e+01 -3.712844e+02 2.186457e+00) (2.934916e-02 8.947539e+00 4.345728e-01))
0.0524444     	((4.378857e+01 -1.819321e-17 8.729685e+02) (8.769833e+00 -6.303354e-21 -6.058352e-01)) ((-4.364842e+01 -3.746748e+02 2.189428e+00) (3.029176e-02 9.019323e+00 4.384916e-01))
0.0528889     	((4.330459e+01 -1.842015e-17 8.730761e+02) (8.844931e+00 -7.148300e-21 -6.245992e-01)) ((-4.365380e+01 -3.751662e+02 2.165230e+00) (3.122996e-02 9.086836e+00 4.422466e-01))
0.0533333     	((4.283017e+01 -1.839168e-17 8.737198e+02) (8.919935e+00 -9.504361e-21 -6.396802e-01)) ((-4.368599e+01 -3.756977e+02 2.141508e+00) (3.198401e-02 9.149870e+00 4.459968e-01))
0.0537778     	((4.121604e+01 -1.870877e-17 8.627130e+02) (8.999818e+00 -1.384074e-20 -6.508418e-01)) ((-4.313565e+01 -3.699689e+02 2.060802e+00) (3.254209e-02 9.212733e+00 4.499909e-01))
0.0542222     	((3.184237e+01 -2.436490e-17 7.659974e+02) (8.925031e+00 -1.603542e-20 -6.199665e-01)) ((-3.829987e+01 -3.193883e+02 1.592118e+00) (3.099832e-02 9.080485e+00 4.462515e-01))
0.0546667     	((4.200969e+01 -1.805406e-17 8.868153e+02) (8.920793e+00 -1.645521e-20 -6.305371e-01)) ((-4.434077e+01 -3.828980e+02 2.100484e+00) (3.152686e-02 9.054559e+00 4.460397e-01))
0.0551111     	((4.211275e+01 -1.840081e-17 8.893704e+02) (8.988083e+00 -1.694899e-20 -6.787642e-01)) ((-4.446852e+01 -3.849969e+02 2.105638e+00) (3.393821e-02 9.133289e+00 4.494041e-01))
0.0555556     	((4.010928e+01 -1.918807e-17 8.798801e+02) (9.056140e+00 -1.878766e-20 -7.387840e-01)) ((-4.399400e+01 -3.802727e+02 2.005464e+00) (3.693920e-02 9.222105e+00 4.528070e-01))
0.056         	((3.871950e+01 -1.908777e-17 8.886341e+02) (9.114194e+00 -2.044506e-20 -8.067118e-01)) ((-4.443171e+01 -3.853672e+02 1.935975e+00) (4.033559e-02 9.306801e+00 4.557097e-01))
0.0564444     	((3.978562e+01 -1.687495e-17 8.826751e+02) (9.174265e+00 -2.198838e-20 -8.757044e-01)) ((-4.413375e+01 -3.821787e+02 1.989281e+00) (4.378522e-02 9.394039e+00 4.587133e-01))
0.0568889     	((2.342499e+01 9.308493e-18 7.207696e+02) (9.263503e+00 -2.508149e-20 -9.554080e-01)) ((-3.603848e+01 -2.963728e+02 1.171250e+00) (4.777040e-02 9.518705e+00 4.631751e-01))
0.0573333     	((4.021719e+01 -1.940546e-17 8.900252e+02) (9.364590e+00 -2.942201e-20 -1.044810e+00)) ((-4.450126e+01 -3.870431e+02 2.010860e+00) (5.224049e-02 9.662320e+00 4.682295e-01))
0.0577778     	((3.896566e+01 -1.928563e-17 8.976403e+02) (9.490027e+00 -3.280627e-20 -1.146154e+00)) ((-4.488201e+01 -3.919681e+02 1.948283e+00) (5.730771e-02 9.839840e+00 4.745013e-01))
0.0582222     	((3.721880e+01 -1.527807e-17 8.792412e+02) (9.640452e+00 -3.602820e-20 -1.258515e+00)) ((-4.396206e+01 -3.815915e+02 1.860940e+00) (6.292575e-02 1.005173e+01 4.820226e-01))
0.0586667     	((3.937483e+01 -1.809199e-17 8.996775e+02) (9.779787e+00 -4.432135e-20 -1.372579e+00)) ((-4.498387e+01 -3.924734e+02 1.968741e+00) (6.862894e-02 1.025405e+01 4.889894e-01))
0.0591111     	((3.665029e+01 -1.749470e-17 9.030078e+02) (9.879617e+00 -4.403242e-20 -1.485485e+00)) ((-4.515039e+01 -3.952351e+02 1.832514e+00) (7.427426e-02 1.041569e+01 4.939809e-01))
0.0595556     	((3.745722e+01 -1.709869e-17 8.973598e+02) (9.949077e+00 -3.701687e-20 -1.603494e+00)) ((-4.486799e+01 -3.914980e+02 1.872861e+00) (8.017469e-02 1.055057e+01 4.974539e-01))