# Forces      
# CofR        : (0.000000e+00 0.000000e+00 -1.000000e+00)
# Time        forces(pressure viscous)	moments(pressure viscous)
0             	((-7.105427e-15 -3.955919e-14 5.018208e-14) (9.153885e+00 4.365909e-18 1.933806e+00)) ((-5.701534e-14 -7.460699e-13 -2.905862e-14) (-2.824553e-17 8.200069e+00 1.125023e-16))
1.19976e-05   	((1.579663e+05 3.675505e-12 2.020770e+06) (9.206572e+00 4.344650e-18 1.705123e+00)) ((-5.753267e-11 -6.418280e+05 4.816635e-12) (-1.766219e-17 8.353677e+00 1.108202e-16))
2.63878e-05   	((1.857506e+04 5.311778e-13 3.549508e+05) (9.200344e+00 4.359308e-18 1.627996e+00)) ((-9.773917e-12 -1.440133e+05 5.041454e-13) (-1.489848e-17 8.376544e+00 1.103915e-16))
4.36511e-05   	((1.063540e+04 2.836510e-13 1.943135e+05) (9.199851e+00 4.203334e-18 1.591006e+00)) ((-5.387035e-12 -7.743878e+04 2.776215e-13) (-1.344264e-17 8.390652e+00 1.105068e-16))
6.43527e-05   	((7.168234e+03 2.010194e-13 1.272378e+05) (9.218085e+00 4.149738e-18 1.570679e+00)) ((-3.556719e-12 -4.840578e+04 2.069084e-13) (-1.260501e-17 8.417839e+00 1.108479e-16))
8.91792e-05   	((4.650794e+03 1.346237e-13 8.583734e+04) (9.239483e+00 4.128230e-18 1.557014e+00)) ((-2.410401e-12 -3.254733e+04 1.383226e-13) (-1.208208e-17 8.445726e+00 1.112863e-16))
0.000118941   	((4.462120e+03 9.471158e-14 6.582148e+04) (9.267704e+00 4.109918e-18 1.547204e+00)) ((-1.881296e-12 -2.412778e+04 1.090961e-13) (-1.172240e-17 8.479049e+00 1.118426e-16))
0.000154634   	((3.858352e+03 6.997460e-14 5.038658e+04) (9.302009e+00 4.086704e-18 1.539859e+00)) ((-1.461932e-12 -1.768681e+04 8.911176e-14) (-1.146188e-17 8.517629e+00 1.125128e-16))
0.000197405   	((2.683641e+03 4.508162e-14 3.699221e+04) (9.338455e+00 4.049920e-18 1.533361e+00)) ((-1.077784e-12 -1.342459e+04 5.730714e-14) (-1.125875e-17 8.557950e+00 1.132766e-16))
0.000248707   	((3.116673e+03 5.017259e-14 2.989127e+04) (9.385586e+00 3.969711e-18 1.529579e+00)) ((-9.683323e-13 -9.988304e+03 5.228684e-14) (-1.104826e-17 8.608422e+00 1.137833e-16))
0.000310237   	((1.990099e+03 2.593323e-14 2.310474e+04) (9.437611e+00 3.908938e-18 1.525268e+00)) ((-7.067095e-13 -7.937592e+03 3.600502e-14) (-1.089215e-17 8.663795e+00 1.147569e-16))
0.000383982   	((2.155071e+03 1.725666e-14 1.996769e+04) (9.505298e+00 3.831803e-18 1.520968e+00)) ((-6.243248e-13 -6.526628e+03 3.227171e-14) (-1.075180e-17 8.734697e+00 1.159874e-16))
0.000472342   	((1.521054e+03 1.083872e-14 1.599558e+04) (9.584074e+00 3.750839e-18 1.517114e+00)) ((-5.004615e-13 -5.437279e+03 2.176167e-14) (-1.065743e-17 8.816635e+00 1.174500e-16))
0.000577897   	((1.840208e+03 1.820456e-14 1.457613e+04) (9.687288e+00 3.678471e-18 1.517599e+00)) ((-5.429170e-13 -4.845367e+03 1.598075e-14) (-9.570448e-18 8.922342e+00 1.197303e-16))
0.000704014   	((1.787068e+03 8.131446e-15 1.261017e+04) (9.824102e+00 3.614552e-18 1.514064e+00)) ((-4.420214e-13 -3.824493e+03 1.877503e-14) (-9.171498e-18 9.061909e+00 1.223215e-16))
0.000854764   	((1.257049e+03 2.644839e-15 1.000323e+04) (9.994910e+00 3.533588e-18 1.512154e+00)) ((-3.474293e-13 -3.122937e+03 1.205110e-14) (-8.775668e-18 9.234959e+00 1.256695e-16))
0.00103538    	((1.543507e+03 7.309233e-15 8.813723e+03) (1.022843e+01 3.414201e-18 1.515521e+00)) ((-3.728882e-13 -2.545786e+03 1.056851e-14) (-8.248678e-18 9.469320e+00 1.302854e-16))
0.00125089    	((2.094548e+03 9.550093e-15 9.645076e+03) (1.056391e+01 3.226838e-18 1.509340e+00)) ((-4.126256e-13 -2.389736e+03 1.694607e-14) (-7.401151e-18 9.805839e+00 1.354569e-16))
0.00150772    	((3.180820e+03 1.711070e-14 1.002935e+04) (1.105649e+01 2.865929e-18 1.490888e+00)) ((-5.519317e-13 -1.990005e+03 1.995918e-14) (-3.913562e-18 1.030109e+01 1.451220e-16))
0.00181593    	((2.833499e+02 -7.659839e-15 5.325802e+03) (1.152529e+01 2.806108e-18 1.544389e+00)) ((-1.677447e-13 -1.990493e+03 -4.436059e-16) (-4.007862e-18 1.076263e+01 1.563101e-16))
0.00217961    	((2.245943e+02 -8.863881e-15 4.711042e+03) (1.207582e+01 2.513460e-18 1.608740e+00)) ((-1.493179e-13 -1.788492e+03 -1.970050e-15) (-4.079284e-18 1.130627e+01 1.661298e-16))
0.00261425    	((1.959687e+02 -8.495605e-15 4.741776e+03) (1.272359e+01 2.133335e-18 1.669184e+00)) ((-1.475789e-13 -1.981946e+03 -2.386308e-15) (-5.679860e-18 1.195085e+01 1.758717e-16))
0.00311099    	((-1.048138e+02 -8.326867e-15 9.805291e+03) (1.340672e+01 2.075089e-18 1.735113e+00)) ((-2.743025e-13 -5.438170e+03 -1.004687e-14) (-4.952838e-18 1.262950e+01 1.859359e-16))
0.00369337    	((3.402725e+02 -1.398993e-14 3.722817e+03) (1.419932e+01 1.870935e-18 1.762436e+00)) ((-1.318064e-13 -1.289637e+03 -3.343418e-15) (-8.206939e-18 1.342612e+01 1.958759e-16))
0.00437281    	((4.910463e+02 -1.318950e-14 2.412290e+03) (1.500592e+01 1.698975e-18 1.826500e+00)) ((-1.275362e-13 -6.966990e+02 -4.324670e-15) (-9.441207e-18 1.423077e+01 2.037028e-16))
0.00515417    	((4.480525e+02 -9.079982e-15 1.925846e+03) (1.577095e+01 1.470443e-18 1.897958e+00)) ((-1.375835e-13 -5.720456e+02 -5.869380e-15) (-3.453673e-18 1.499075e+01 2.171602e-16))
0.00602746    	((1.499873e+02 -1.393185e-14 2.257017e+03) (1.629636e+01 1.570232e-18 1.876995e+00)) ((-8.760705e-14 -7.403546e+02 -6.092031e-15) (-3.877240e-18 1.550796e+01 2.299316e-16))
0.00658636    	((1.504120e+02 -1.374428e-14 2.411116e+03) (1.646986e+01 1.491408e-18 1.853810e+00)) ((-9.128263e-14 -8.272169e+02 -5.962047e-15) (-4.473607e-18 1.567019e+01 2.376821e-16))
0.00706542    	((1.613339e+02 -1.353470e-14 2.560312e+03) (1.660192e+01 1.413973e-18 1.806621e+00)) ((-9.482290e-14 -8.969395e+02 -5.633873e-15) (-4.052416e-18 1.579671e+01 2.427063e-16))
0.00749657    	((8.155416e+01 -1.154705e-14 3.912136e+03) (1.669659e+01 1.226542e-18 1.769150e+00)) ((-1.239514e-13 -1.835479e+03 -6.495117e-15) (-4.065888e-18 1.588340e+01 2.449537e-16))
0.00791335    	((1.054942e+02 -1.250570e-14 3.603963e+03) (1.678530e+01 1.125602e-18 1.724201e+00)) ((-1.192270e-13 -1.587038e+03 -6.535206e-15) (-2.891124e-18 1.596776e+01 2.471146e-16))
0.00833013    	((1.529258e+02 -1.402588e-14 2.552766e+03) (1.685639e+01 8.186483e-19 1.679344e+00)) ((-9.407658e-14 -9.317142e+02 -6.284441e-15) (-1.283166e-18 1.603455e+01 2.499656e-16))
0.00874691    	((1.206482e+02 -1.590368e-14 2.800578e+03) (1.691193e+01 7.869208e-19 1.654033e+00)) ((-1.029566e-13 -1.200232e+03 -7.909847e-15) (7.538255e-19 1.607763e+01 2.531321e-16))
0.00917972    	((1.476198e+02 -1.444329e-14 2.450751e+03) (1.697183e+01 4.920566e-19 1.601060e+00)) ((-9.177448e-14 -9.079182e+02 -6.652643e-15) (1.602041e-18 1.613558e+01 2.563849e-16))
0.00961253    	((1.549887e+02 -1.436352e-14 2.298059e+03) (1.703814e+01 4.157848e-19 1.549979e+00)) ((-8.857409e-14 -8.098148e+02 -6.381164e-15) (2.594057e-18 1.620133e+01 2.597063e-16))
0.0100453     	((1.578455e+02 -1.452705e-14 2.145248e+03) (1.709758e+01 4.814268e-19 1.509498e+00)) ((-8.791454e-14 -7.448483e+02 -6.479453e-15) (3.761550e-18 1.625938e+01 2.638878e-16))
0.0104782     	((1.534285e+02 -1.450302e-14 2.150745e+03) (1.715511e+01 5.034075e-19 1.466538e+00)) ((-8.526240e-14 -7.401605e+02 -6.518608e-15) (4.385576e-18 1.631734e+01 2.685870e-16))
0.010911      	((1.455936e+02 -1.469346e-14 2.197291e+03) (1.723757e+01 4.654575e-19 1.418313e+00)) ((-8.610361e-14 -7.907049e+02 -6.876270e-15) (5.069457e-18 1.640319e+01 2.724630e-16))
0.0113438     	((1.507279e+02 -1.878437e-14 1.921228e+03) (1.730729e+01 5.395882e-19 1.391647e+00)) ((-7.586968e-14 -6.762079e+02 -8.004913e-15) (4.722916e-18 1.647090e+01 2.772676e-16))
0.0117766     	((1.462952e+02 -1.486164e-14 2.096850e+03) (1.737922e+01 5.759326e-19 1.355997e+00)) ((-8.330180e-14 -7.378354e+02 -6.911328e-15) (4.791775e-18 1.654565e+01 2.815842e-16))
0.0121878     	((1.462138e+02 -1.484373e-14 2.063512e+03) (1.746109e+01 4.499024e-19 1.322036e+00)) ((-8.238061e-14 -7.203518e+02 -6.913365e-15) (4.903519e-18 1.663217e+01 2.850266e-16))
0.0125989     	((1.417211e+02 -1.493888e-14 2.089866e+03) (1.757962e+01 2.118084e-19 1.271514e+00)) ((-8.291168e-14 -7.500228e+02 -7.116634e-15) (5.397955e-18 1.676207e+01 2.879445e-16))
0.0130101     	((1.456426e+02 -1.541706e-14 1.988385e+03) (1.769490e+01 2.600148e-19 1.220576e+00)) ((-8.016446e-14 -6.988360e+02 -7.112041e-15) (5.716309e-18 1.688971e+01 2.915475e-16))
0.013447      	((1.463935e+02 -1.652228e-14 1.912374e+03) (1.782238e+01 1.494358e-19 1.183937e+00)) ((-7.709477e-14 -6.867805e+02 -7.374595e-15) (5.014110e-18 1.702882e+01 2.931728e-16))
0.0138838     	((1.429659e+02 -1.681221e-14 1.904454e+03) (1.793884e+01 2.771620e-19 1.157848e+00)) ((-7.687573e-14 -6.752694e+02 -7.626455e-15) (4.549578e-18 1.715318e+01 2.946490e-16))
0.0143207     	((1.333089e+02 -1.773951e-14 1.964991e+03) (1.807722e+01 5.597834e-19 1.132170e+00)) ((-7.779182e-14 -7.437405e+02 -8.275781e-15) (3.581826e-18 1.730363e+01 2.947171e-16))
0.0147576     	((1.434089e+02 -1.635074e-14 1.898104e+03) (1.818499e+01 6.439541e-19 1.106401e+00)) ((-7.782658e-14 -6.727547e+02 -7.507313e-15) (3.283063e-18 1.742151e+01 2.956410e-16))
0.0151944     	((1.467691e+02 -1.845494e-14 1.792188e+03) (1.828014e+01 7.219580e-19 1.085590e+00)) ((-7.746251e-14 -6.522379e+02 -8.162627e-15) (4.438044e-18 1.752515e+01 2.975379e-16))
0.0156313     	((1.418416e+02 -1.596239e-14 1.897083e+03) (1.837039e+01 6.788640e-19 1.064404e+00)) ((-7.765760e-14 -6.663495e+02 -7.445774e-15) (4.398488e-18 1.762335e+01 2.994368e-16))
0.0160682     	((1.407570e+02 -1.704783e-14 1.852065e+03) (1.848404e+01 6.119705e-19 1.043964e+00)) ((-7.370246e-14 -7.236240e+02 -7.732735e-15) (2.848290e-18 1.775127e+01 2.963556e-16))
0.0165051     	((1.433517e+02 -1.601345e-14 1.827604e+03) (1.856962e+01 5.358812e-19 1.012012e+00)) ((-7.433076e-14 -6.494951e+02 -7.358516e-15) (2.505895e-18 1.785151e+01 2.960327e-16))
0.0169419     	((1.394364e+02 -1.695974e-14 1.776193e+03) (1.864410e+01 4.341404e-19 9.980463e-01)) ((-7.337229e-14 -6.399527e+02 -7.799912e-15) (2.217489e-18 1.793307e+01 2.975656e-16))
0.0173788     	((1.403113e+02 -1.692276e-14 1.750407e+03) (1.871004e+01 5.475868e-19 9.880748e-01)) ((-7.272759e-14 -6.234060e+02 -7.764254e-15) (1.814010e-18 1.800314e+01 2.994196e-16))
0.0178157     	((1.292696e+02 -1.605922e-14 1.962868e+03) (1.881057e+01 6.225256e-20 9.632070e-01)) ((-7.754033e-14 -7.549302e+02 -7.906343e-15) (1.725460e-18 1.811993e+01 2.989994e-16))
0.0182525     	((1.424615e+02 -1.606767e-14 1.776531e+03) (1.886604e+01 -3.952992e-20 9.486405e-01)) ((-7.281371e-14 -6.359192e+02 -7.423159e-15) (1.129331e-18 1.818544e+01 3.005896e-16))
0.0186894     	((1.445795e+02 -1.623627e-14 1.735706e+03) (1.889100e+01 -1.217637e-19 9.447010e-01)) ((-7.136852e-14 -6.284365e+02 -7.397027e-15) (2.502932e-19 1.821500e+01 3.026779e-16))
0.0191263     	((1.406711e+02 -1.591718e-14 1.780005e+03) (1.891481e+01 -1.868318e-19 9.368039e-01)) ((-7.296660e-14 -6.366324e+02 -7.453740e-15) (-1.507137e-19 1.824252e+01 3.043936e-16))
0.0195631     	((1.296426e+02 -1.594449e-14 1.920833e+03) (1.898022e+01 -2.728525e-19 9.156245e-01)) ((-7.639787e-14 -7.337115e+02 -7.869387e-15) (-5.087560e-19 1.832228e+01 3.046256e-16))
0.02          	((1.380436e+02 -1.584535e-14 1.771075e+03) (1.901622e+01 -1.845002e-19 8.928707e-01)) ((-7.276914e-14 -6.300862e+02 -7.534408e-15) (-3.470296e-19 1.837025e+01 3.066194e-16))
0.0204545     	((1.336095e+02 -1.539538e-14 1.658827e+03) (1.905177e+01 -2.965752e-19 8.895314e-01)) ((-6.777046e-14 -6.102067e+02 -7.541216e-15) (-1.382529e-18 1.841053e+01 3.065015e-16))
0.0209091     	((1.379710e+02 -1.583609e-14 1.764991e+03) (1.906735e+01 -2.775731e-19 8.815126e-01)) ((-7.279638e-14 -6.229304e+02 -7.540658e-15) (-1.153289e-18 1.842971e+01 3.090314e-16))
0.0213636     	((1.338803e+02 -1.589771e-14 1.805896e+03) (1.910136e+01 -3.235260e-19 8.697757e-01)) ((-7.371271e-14 -6.560374e+02 -7.710296e-15) (-8.870100e-19 1.847142e+01 3.109579e-16))
0.0218182     	((1.357328e+02 -1.595779e-14 1.770730e+03) (1.911106e+01 -6.308846e-19 8.625481e-01)) ((-7.284422e-14 -6.341386e+02 -7.658136e-15) (-7.927106e-20 1.848446e+01 3.140098e-16))
0.0222727     	((1.286538e+02 -1.600995e-14 1.854405e+03) (1.916238e+01 -7.313845e-19 8.474356e-01)) ((-7.475239e-14 -6.982251e+02 -7.939907e-15) (2.296027e-19 1.854707e+01 3.148793e-16))
0.0227273     	((1.349522e+02 -1.600410e-14 1.767101e+03) (1.916558e+01 -7.390338e-19 8.386464e-01)) ((-7.275411e-14 -6.350925e+02 -7.700375e-15) (6.895750e-19 1.855529e+01 3.177489e-16))
0.0231818     	((1.362838e+02 -1.603059e-14 1.729687e+03) (1.916316e+01 -7.087907e-19 8.235460e-01)) ((-7.186541e-14 -6.141090e+02 -7.658566e-15) (8.626358e-20 1.855895e+01 3.202052e-16))
0.0236364     	((1.280933e+02 -1.476217e-14 1.616651e+03) (1.920117e+01 -4.025796e-19 8.233455e-01)) ((-7.980188e-14 -6.033682e+02 -6.981265e-15) (1.571531e-18 1.860093e+01 3.200263e-16))
0.0240909     	((1.349456e+02 -1.598783e-14 1.733090e+03) (1.918494e+01 -3.624944e-19 8.192472e-01)) ((-7.258113e-14 -6.177550e+02 -7.676534e-15) (2.214902e-18 1.858606e+01 3.234947e-16))
0.0245455     	((1.317272e+02 -1.599538e-14 1.771358e+03) (1.919626e+01 -3.178894e-19 8.119833e-01)) ((-7.347283e-14 -6.428332e+02 -7.815104e-15) (2.612909e-18 1.860222e+01 3.251797e-16))
0.025         	((1.317185e+02 -1.598377e-14 1.766329e+03) (1.919556e+01 -2.940111e-19 8.063299e-01)) ((-7.355146e-14 -6.354171e+02 -7.824971e-15) (3.028645e-18 1.860502e+01 3.276673e-16))
0.0254545     	((1.312783e+02 -1.602708e-14 1.760220e+03) (1.919099e+01 -4.569289e-19 8.008542e-01)) ((-7.387285e-14 -6.328002e+02 -7.843247e-15) (3.630857e-18 1.860358e+01 3.300907e-16))
0.0259091     	((1.288984e+02 -1.614067e-14 1.791276e+03) (1.920723e+01 -4.827765e-19 7.924647e-01)) ((-7.448787e-14 -6.554783e+02 -7.981767e-15) (4.048038e-18 1.862546e+01 3.314285e-16))
0.0263636     	((1.323152e+02 -1.617644e-14 1.729511e+03) (1.918204e+01 -4.400821e-19 7.793287e-01)) ((-7.341597e-14 -6.152592e+02 -7.855283e-15) (4.204001e-18 1.860535e+01 3.345741e-16))
0.0268182     	((1.222743e+02 -1.647769e-14 1.629837e+03) (1.922900e+01 9.347350e-20 7.752312e-01)) ((-7.978490e-14 -6.111057e+02 -7.866191e-15) (4.543036e-18 1.865743e+01 3.355317e-16))
0.0272727     	((1.290545e+02 -1.618596e-14 1.747730e+03) (1.920349e+01 4.040790e-19 7.699762e-01)) ((-7.454661e-14 -6.347593e+02 -7.926206e-15) (4.840125e-18 1.863401e+01 3.387739e-16))
0.0277273     	((1.313113e+02 -1.596655e-14 1.724884e+03) (1.917120e+01 5.698922e-19 7.654976e-01)) ((-7.329754e-14 -6.108664e+02 -7.794917e-15) (5.223017e-18 1.860324e+01 3.419204e-16))
0.0281818     	((1.259454e+02 -1.589496e-14 1.799621e+03) (1.920492e+01 6.867893e-19 7.556742e-01)) ((-7.461262e-14 -6.633822e+02 -7.971906e-15) (5.255434e-18 1.864421e+01 3.416956e-16))
0.0286364     	((1.298336e+02 -1.582579e-14 1.743914e+03) (1.916874e+01 8.291921e-19 7.518217e-01)) ((-7.322644e-14 -6.218815e+02 -7.806218e-15) (5.599088e-18 1.860915e+01 3.440757e-16))
0.0290909     	((1.267583e+02 -1.588712e-14 1.768130e+03) (1.918535e+01 7.758306e-19 7.430966e-01)) ((-7.407779e-14 -6.460464e+02 -7.921101e-15) (5.772915e-18 1.863136e+01 3.434314e-16))
0.0295455     	((1.282016e+02 -1.590138e-14 1.744315e+03) (1.916691e+01 8.117311e-19 7.360440e-01)) ((-7.360220e-14 -6.303429e+02 -7.865505e-15) (6.086103e-18 1.861605e+01 3.443217e-16))
0.03          	((1.245468e+02 -1.575887e-14 1.719852e+03) (1.919422e+01 9.026075e-19 7.169287e-01)) ((-7.440718e-14 -6.293968e+02 -7.873703e-15) (6.450501e-18 1.865470e+01 3.437607e-16))
0.0304545     	((1.247642e+02 -1.542880e-14 1.591711e+03) (1.916160e+01 1.058230e-18 7.214933e-01)) ((-7.375298e-14 -5.632187e+02 -7.619777e-15) (6.281844e-18 1.861988e+01 3.467250e-16))
0.0309091     	((1.239047e+02 -1.563868e-14 1.794299e+03) (1.920835e+01 9.792727e-19 7.092946e-01)) ((-7.529339e-14 -6.631003e+02 -7.956531e-15) (6.129297e-18 1.867625e+01 3.450937e-16))
0.0313636     	((1.279350e+02 -1.558654e-14 1.729776e+03) (1.917251e+01 9.134400e-19 7.048433e-01)) ((-7.401440e-14 -6.174887e+02 -7.798792e-15) (6.541702e-18 1.864223e+01 3.476755e-16))
0.0318182     	((1.259713e+02 -1.562238e-14 1.751255e+03) (1.917927e+01 9.301792e-19 6.969580e-01)) ((-7.458498e-14 -6.357149e+02 -7.884258e-15) (6.722588e-18 1.865405e+01 3.489537e-16))
0.0322727     	((1.246907e+02 -1.562966e-14 1.769320e+03) (1.919732e+01 9.636468e-19 6.868895e-01)) ((-7.487523e-14 -6.485437e+02 -7.938601e-15) (6.906093e-18 1.867929e+01 3.503351e-16))
0.0327273     	((1.273967e+02 -1.555992e-14 1.725369e+03) (1.915646e+01 1.016878e-18 6.793398e-01)) ((-7.378082e-14 -6.155336e+02 -7.794919e-15) (7.201027e-18 1.864264e+01 3.549854e-16))
0.0331818     	((1.213747e+02 -1.558345e-14 1.792161e+03) (1.922157e+01 9.056595e-19 6.513456e-01)) ((-7.503405e-14 -6.670016e+02 -8.003641e-15) (8.367709e-18 1.872620e+01 3.555221e-16))
0.0336364     	((1.180393e+02 -1.597290e-14 1.578772e+03) (1.918302e+01 1.102359e-18 6.569891e-01)) ((-6.849532e-14 -5.679066e+02 -8.295453e-15) (7.953103e-18 1.868521e+01 3.605610e-16))
0.0340909     	((1.248541e+02 -1.558048e-14 1.747137e+03) (1.917058e+01 1.167589e-18 6.497659e-01)) ((-7.362307e-14 -6.331955e+02 -7.872053e-15) (8.615938e-18 1.867684e+01 3.638042e-16))
0.0345455     	((1.222733e+02 -1.561964e-14 1.778402e+03) (1.921175e+01 1.206912e-18 6.368775e-01)) ((-7.421499e-14 -6.577980e+02 -7.987834e-15) (8.882922e-18 1.872813e+01 3.642319e-16))
0.035         	((1.254699e+02 -1.555456e-14 1.736963e+03) (1.917449e+01 1.215403e-18 6.310670e-01)) ((-7.335814e-14 -6.256371e+02 -7.838624e-15) (9.670344e-18 1.869427e+01 3.685865e-16))
0.0354545     	((1.245366e+02 -1.552127e-14 1.744705e+03) (1.917368e+01 1.187780e-18 6.234595e-01)) ((-7.354249e-14 -6.306472e+02 -7.870247e-15) (1.028872e-17 1.869875e+01 3.712106e-16))
0.0359091     	((1.219789e+02 -1.550777e-14 1.784295e+03) (1.920962e+01 1.140093e-18 6.118055e-01)) ((-7.450314e-14 -6.578633e+02 -7.956248e-15) (1.063063e-17 1.874408e+01 3.720150e-16))
0.0363636     	((1.247812e+02 -1.549974e-14 1.722672e+03) (1.918217e+01 1.295552e-18 5.960806e-01)) ((-7.320026e-14 -6.175364e+02 -7.843326e-15) (1.107493e-17 1.872574e+01 3.763936e-16))
0.0368182     	((1.136887e+02 -1.567133e-14 1.577908e+03) (1.920819e+01 1.075036e-18 5.961273e-01)) ((-7.252030e-14 -5.722286e+02 -8.057110e-15) (1.169055e-17 1.875463e+01 3.780206e-16))
0.0372727     	((1.218299e+02 -1.554620e-14 1.759947e+03) (1.922391e+01 1.057420e-18 5.864887e-01)) ((-7.414134e-14 -6.465115e+02 -7.956112e-15) (1.205523e-17 1.877813e+01 3.798609e-16))
0.0377273     	((1.231797e+02 -1.550522e-14 1.739392e+03) (1.920752e+01 1.028683e-18 5.793924e-01)) ((-7.372811e-14 -6.308016e+02 -7.891560e-15) (1.262204e-17 1.876695e+01 3.833247e-16))
0.0381818     	((1.202317e+02 -1.549694e-14 1.791789e+03) (1.925088e+01 1.014485e-18 5.686260e-01)) ((-7.488044e-14 -6.657725e+02 -8.005846e-15) (1.294007e-17 1.881919e+01 3.839477e-16))
0.0386364     	((1.233564e+02 -1.545771e-14 1.752606e+03) (1.922048e+01 1.092347e-18 5.623577e-01)) ((-7.403484e-14 -6.347019e+02 -7.879206e-15) (1.357712e-17 1.879299e+01 3.882542e-16))
0.0390909     	((1.195104e+02 -1.551892e-14 1.791452e+03) (1.926679e+01 1.080987e-18 5.517143e-01)) ((-7.499716e-14 -6.665878e+02 -8.034802e-15) (1.397087e-17 1.884780e+01 3.885634e-16))
0.0395455     	((1.220755e+02 -1.553867e-14 1.732275e+03) (1.924673e+01 1.413573e-18 5.342519e-01)) ((-7.386918e-14 -6.282251e+02 -7.926830e-15) (1.491117e-17 1.883813e+01 3.925312e-16))
0.04          	((1.122260e+02 -1.755857e-14 1.629187e+03) (1.928957e+01 1.297207e-18 5.270158e-01)) ((-6.848817e-14 -5.964657e+02 -9.323418e-15) (1.486324e-17 1.888753e+01 3.910595e-16))
0.0404651     	((1.197147e+02 -1.628876e-14 1.692565e+03) (1.927509e+01 1.214738e-18 5.225278e-01)) ((-7.154309e-14 -6.116172e+02 -8.421398e-15) (1.546483e-17 1.887664e+01 3.925696e-16))
0.0409302     	((1.201130e+02 -1.554808e-14 1.778785e+03) (1.930881e+01 1.181790e-18 5.123040e-01)) ((-7.434612e-14 -6.573594e+02 -8.042496e-15) (1.600713e-17 1.891811e+01 3.914842e-16))
0.0413953     	((1.214145e+02 -1.552595e-14 1.754967e+03) (1.930016e+01 1.244119e-18 5.046148e-01)) ((-7.363927e-14 -6.397904e+02 -7.994931e-15) (1.657923e-17 1.891499e+01 3.920693e-16))
0.0418605     	((1.198171e+02 -1.550759e-14 1.781749e+03) (1.932857e+01 1.059973e-18 4.955266e-01)) ((-7.417634e-14 -6.586002e+02 -8.042766e-15) (1.721431e-17 1.895044e+01 3.902564e-16))
0.0423256     	((1.204444e+02 -1.558275e-14 1.760378e+03) (1.932874e+01 8.992028e-19 4.880115e-01)) ((-7.362105e-14 -6.455067e+02 -8.046501e-15) (1.790468e-17 1.895621e+01 3.894936e-16))
0.0427907     	((1.184489e+02 -1.576771e-14 1.754070e+03) (1.935732e+01 8.160890e-19 4.657976e-01)) ((-7.337246e-14 -6.476958e+02 -8.199708e-15) (1.683450e-17 1.899915e+01 3.867148e-16))
0.0432558     	((1.080144e+02 -2.161196e-14 1.581655e+03) (1.937175e+01 2.456209e-19 4.689634e-01)) ((-7.420546e-14 -5.720752e+02 -1.084685e-14) (1.949844e-17 1.901380e+01 3.873306e-16))
0.0437209     	((1.185107e+02 -1.589682e-14 1.764129e+03) (1.939077e+01 1.141911e-19 4.608098e-01)) ((-7.406853e-14 -6.518556e+02 -8.241875e-15) (2.012804e-17 1.903892e+01 3.868127e-16))
0.044186      	((1.191831e+02 -1.554129e-14 1.780637e+03) (1.940546e+01 -6.257814e-20 4.525332e-01)) ((-7.436497e-14 -6.584102e+02 -8.088401e-15) (2.074186e-17 1.905967e+01 3.862318e-16))
0.0446512     	((1.189842e+02 -1.548830e-14 1.784846e+03) (1.942583e+01 -2.065194e-19 4.443342e-01)) ((-7.455925e-14 -6.606563e+02 -8.083039e-15) (2.125190e-17 1.908618e+01 3.858900e-16))
0.0451163     	((1.183982e+02 -1.559991e-14 1.780007e+03) (1.944476e+01 -2.005477e-19 4.363544e-01)) ((-7.458993e-14 -6.594097e+02 -8.148215e-15) (2.159503e-17 1.911105e+01 3.857939e-16))
0.0455814     	((1.183407e+02 -1.554628e-14 1.782863e+03) (1.946234e+01 -1.084617e-19 4.278286e-01)) ((-7.463092e-14 -6.615073e+02 -8.125344e-15) (2.196663e-17 1.913479e+01 3.859987e-16))
0.0460465     	((1.164322e+02 -1.616862e-14 1.756923e+03) (1.948717e+01 8.934184e-19 4.070409e-01)) ((-7.446244e-14 -6.516601e+02 -8.441017e-15) (2.319544e-17 1.917305e+01 3.880433e-16))
0.0465116     	((1.047687e+02 -2.076866e-14 1.594818e+03) (1.950872e+01 2.969098e-19 4.082551e-01)) ((-6.044684e-14 -5.796328e+02 -1.174820e-14) (2.270985e-17 1.919543e+01 3.909624e-16))
0.0469767     	((1.169143e+02 -1.590305e-14 1.777763e+03) (1.952355e+01 2.374517e-19 4.006216e-01)) ((-7.393536e-14 -6.612284e+02 -8.382388e-15) (2.283251e-17 1.921626e+01 3.922605e-16))
0.0474419     	((1.170318e+02 -1.583460e-14 1.783242e+03) (1.953917e+01 9.637385e-20 3.914751e-01)) ((-7.423012e-14 -6.633520e+02 -8.336937e-15) (2.296667e-17 1.923932e+01 3.938346e-16))
0.047907      	((1.173424e+02 -1.564304e-14 1.795471e+03) (1.955668e+01 -5.516652e-20 3.801426e-01)) ((-7.459122e-14 -6.691269e+02 -8.234963e-15) (2.285960e-17 1.926632e+01 3.961540e-16))
0.0483721     	((1.167999e+02 -1.570134e-14 1.795193e+03) (1.957387e+01 -1.129067e-19 3.653337e-01)) ((-7.448062e-14 -6.701239e+02 -8.290375e-15) (2.252249e-17 1.929564e+01 3.993447e-16))
0.0488372     	((1.163247e+02 -1.573867e-14 1.794513e+03) (1.958704e+01 -4.600022e-19 3.492651e-01)) ((-7.442388e-14 -6.710491e+02 -8.327927e-15) (2.237474e-17 1.932194e+01 4.030124e-16))
0.0493023     	((1.145904e+02 -1.624600e-14 1.776600e+03) (1.961328e+01 -1.012074e-18 3.247640e-01)) ((-7.336918e-14 -6.645674e+02 -8.668977e-15) (2.305648e-17 1.936725e+01 4.073799e-16))
0.0497674     	((1.005235e+02 -2.046694e-14 1.595400e+03) (1.965178e+01 -1.425742e-18 3.178998e-01)) ((-5.956780e-14 -5.815765e+02 -1.185576e-14) (2.227069e-17 1.941482e+01 4.127668e-16))
0.0502326     	((1.153600e+02 -1.574034e-14 1.808679e+03) (1.968307e+01 -1.811683e-18 3.033680e-01)) ((-7.461491e-14 -6.811745e+02 -8.366692e-15) (2.219398e-17 1.945892e+01 4.155845e-16))
0.0506977     	((1.147457e+02 -1.589706e-14 1.810770e+03) (1.970367e+01 -2.294700e-18 2.927237e-01)) ((-7.426554e-14 -6.829124e+02 -8.484722e-15) (2.258141e-17 1.948846e+01 4.163715e-16))
0.0511628     	((1.140757e+02 -1.605096e-14 1.811990e+03) (1.971332e+01 -2.711912e-18 2.840586e-01)) ((-7.386317e-14 -6.843089e+02 -8.608854e-15) (2.381090e-17 1.950465e+01 4.151956e-16))
0.0516279     	((1.143000e+02 -1.587617e-14 1.823537e+03) (1.971624e+01 -3.150240e-18 2.770654e-01)) ((-7.445942e-14 -6.906021e+02 -8.496660e-15) (2.504218e-17 1.951263e+01 4.119751e-16))
0.052093      	((1.134263e+02 -1.601452e-14 1.819922e+03) (1.971812e+01 -3.663341e-18 2.713514e-01)) ((-7.412728e-14 -6.902741e+02 -8.613451e-15) (2.623647e-17 1.951855e+01 4.070723e-16))
0.0525581     	((1.116248e+02 -1.645647e-14 1.803214e+03) (1.972905e+01 -4.299068e-18 2.570292e-01)) ((-7.292442e-14 -6.840423e+02 -8.947206e-15) (2.851442e-17 1.953918e+01 4.013932e-16))
0.0530233     	((9.664026e+01 -2.089658e-14 1.623427e+03) (1.974425e+01 -4.367572e-18 2.606598e-01)) ((-5.387913e-14 -5.984811e+02 -1.279612e-14) (2.752004e-17 1.955317e+01 3.927015e-16))
0.0534884     	((1.121681e+02 -1.601478e-14 1.831063e+03) (1.976610e+01 -4.785362e-18 2.529938e-01)) ((-7.450558e-14 -6.996359e+02 -8.658190e-15) (2.814924e-17 1.958135e+01 3.845374e-16))
0.0539535     	((1.117495e+02 -1.612558e-14 1.835097e+03) (1.979189e+01 -5.324299e-18 2.381812e-01)) ((-7.423449e-14 -7.021429e+02 -8.752377e-15) (2.877395e-17 1.961922e+01 3.756043e-16))
0.0544186     	((1.108716e+02 -1.641556e-14 1.835336e+03) (1.981356e+01 -5.902863e-18 2.173563e-01)) ((-7.371855e-14 -7.031522e+02 -8.954591e-15) (2.982159e-17 1.965918e+01 3.661511e-16))
0.0548837     	((1.115888e+02 -1.618603e-14 1.855058e+03) (1.983221e+01 -6.218653e-18 2.038735e-01)) ((-7.500242e-14 -7.132882e+02 -8.751527e-15) (3.041974e-17 1.968909e+01 3.584643e-16))
0.0553488     	((1.104234e+02 -1.650579e-14 1.850554e+03) (1.985175e+01 -6.365951e-18 1.939873e-01)) ((-7.438403e-14 -7.123791e+02 -8.982562e-15) (3.051796e-17 1.971636e+01 3.537199e-16))
0.055814      	((1.048711e+02 -1.846766e-14 1.792360e+03) (1.984786e+01 -6.310325e-18 1.850387e-01)) ((-7.106008e-14 -6.846071e+02 -1.029918e-14) (3.022228e-17 1.971911e+01 3.550628e-16))
0.0562791     	((9.529436e+01 -2.193665e-14 1.686927e+03) (1.985112e+01 -6.233704e-18 1.747394e-01)) ((-6.510330e-14 -6.333927e+02 -1.262016e-14) (2.968051e-17 1.973008e+01 3.565194e-16))
0.0567442     	((1.090295e+02 -1.653076e-14 1.859729e+03) (1.986188e+01 -5.796663e-18 1.624128e-01)) ((-7.512193e-14 -7.213097e+02 -9.021073e-15) (2.862731e-17 1.975096e+01 3.597754e-16))
0.0572093     	((1.089815e+02 -1.645958e-14 1.868633e+03) (1.988442e+01 -5.107054e-18 1.456109e-01)) ((-7.541655e-14 -7.266202e+02 -8.977517e-15) (2.700243e-17 1.978724e+01 3.629029e-16))
0.0576744     	((1.084195e+02 -1.659801e-14 1.872339e+03) (1.991194e+01 -4.592776e-18 1.281886e-01)) ((-7.494231e-14 -7.294477e+02 -9.091361e-15) (2.566128e-17 1.982908e+01 3.666627e-16))
0.0581395     	((1.072167e+02 -1.707286e-14 1.868067e+03) (1.994394e+01 -3.750647e-18 1.129013e-01)) ((-7.413890e-14 -7.276755e+02 -9.403334e-15) (2.416566e-17 1.987481e+01 3.720360e-16))
0.0586047     	((1.068710e+02 -1.701786e-14 1.874915e+03) (1.996075e+01 -3.103308e-18 1.003718e-01)) ((-7.415748e-14 -7.316723e+02 -9.362199e-15) (2.316012e-17 1.990365e+01 3.796752e-16))
0.0590698     	((9.513033e+01 -1.952369e-14 1.752206e+03) (1.996612e+01 -2.010436e-18 8.650047e-02)) ((-7.153808e-14 -6.693596e+02 -1.079282e-14) (2.165747e-17 1.992196e+01 3.895719e-16))
0.0595349     	((9.619517e+01 -1.920575e-14 1.775156e+03) (1.997530e+01 -1.100058e-18 6.871562e-02)) ((-7.204489e-14 -6.823424e+02 -1.061624e-14) (2.052957e-17 1.994682e+01 4.001290e-16))
0.06          	((1.061669e+02 -1.705323e-14 1.897928e+03) (1.999099e+01 -1.969302e-19 4.788555e-02)) ((-7.403034e-14 -7.473860e+02 -9.440913e-15) (1.999668e-17 1.998024e+01 4.102545e-16))
0.0604651     	((1.057155e+02 -1.705072e-14 1.902919e+03) (2.001004e+01 5.604809e-19 2.511273e-02)) ((-7.421505e-14 -7.514002e+02 -9.449202e-15) (1.986532e-17 2.001837e+01 4.189130e-16))
0.0609302     	((1.049854e+02 -1.717244e-14 1.904320e+03) (2.002719e+01 1.183969e-18 1.816270e-03)) ((-7.404315e-14 -7.534284e+02 -9.547226e-15) (1.980859e-17 2.005462e+01 4.260433e-16))
0.0613953     	((1.026976e+02 -1.705426e-14 1.890804e+03) (2.003664e+01 1.831279e-18 -1.319589e-02)) ((-7.439697e-14 -7.468731e+02 -9.448057e-15) (1.960435e-17 2.007731e+01 4.318017e-16))
0.0618605     	((1.026726e+02 -1.724407e-14 1.906450e+03) (2.003558e+01 2.124330e-18 -3.241023e-02)) ((-7.417457e-14 -7.568146e+02 -9.616535e-15) (1.952358e-17 2.009249e+01 4.360438e-16))
0.0623256     	((7.787875e+01 -1.665809e-14 1.657717e+03) (2.002499e+01 2.892117e-18 -5.588308e-02)) ((-7.107483e-14 -6.257283e+02 -9.161526e-15) (1.892489e-17 2.010211e+01 4.410178e-16))
0.0627907     	((1.026146e+02 -1.707863e-14 1.945360e+03) (2.000779e+01 3.093103e-18 -7.542877e-02)) ((-7.472428e-14 -7.808436e+02 -9.593249e-15) (1.840049e-17 2.010349e+01 4.436988e-16))
0.0632558     	((1.019125e+02 -1.714113e-14 1.951288e+03) (1.997231e+01 2.689014e-18 -9.490580e-02)) ((-7.462722e-14 -7.851424e+02 -9.660154e-15) (1.848775e-17 2.008651e+01 4.452008e-16))
0.0637209     	((1.016376e+02 -1.708584e-14 1.958768e+03) (1.992978e+01 2.578161e-18 -1.153678e-01)) ((-7.476735e-14 -7.902133e+02 -9.643312e-15) (1.844451e-17 2.006270e+01 4.462696e-16))
0.064186      	((9.990973e+01 -1.698699e-14 1.949868e+03) (1.989296e+01 2.917008e-18 -1.276947e-01)) ((-7.426904e-14 -7.864778e+02 -9.626788e-15) (1.743903e-17 2.003857e+01 4.471303e-16))
0.0646512     	((9.755332e+01 -1.685710e-14 1.933480e+03) (1.986895e+01 3.883338e-18 -1.429340e-01)) ((-7.446548e-14 -7.788590e+02 -9.524646e-15) (1.628827e-17 2.002949e+01 4.489745e-16))
0.0651163     	((9.565889e+01 -1.676331e-14 1.925377e+03) (1.985628e+01 4.424585e-18 -1.640764e-01)) ((-7.391032e-14 -7.754976e+02 -9.524011e-15) (1.598141e-17 2.003588e+01 4.507195e-16))
0.0655814     	((7.289072e+01 -1.424856e-14 1.706222e+03) (1.985152e+01 4.192777e-18 -1.879862e-01)) ((-6.881693e-14 -6.561640e+02 -8.204927e-15) (1.656639e-17 2.005190e+01 4.508266e-16))
0.0660465     	((9.853717e+01 -1.711800e-14 1.982521e+03) (1.984216e+01 4.038782e-18 -2.083886e-01)) ((-7.537772e-14 -8.085042e+02 -9.729198e-15) (1.707619e-17 2.006023e+01 4.518828e-16))