# Forces      
# CofR        : (0.000000e+00 0.000000e+00 -1.000000e+00)
# Time        forces(pressure viscous)	moments(pressure viscous)
0             	((0.000000e+00 6.445847e-15 -6.821210e-13) (1.485505e+01 3.919056e-18 1.946937e+00)) ((-1.025239e-13 1.136868e-13 -3.521632e-15) (-4.482175e-18 1.392898e+01 1.060120e-17))
1.19976e-05   	((2.022111e+05 8.140199e-12 1.017941e+06) (1.505408e+01 3.631598e-18 1.715561e+00)) ((-2.648045e-11 -1.178041e+05 4.386248e-12) (2.883577e-18 1.418585e+01 7.917889e-18))
2.63878e-05   	((2.477546e+04 1.418837e-12 1.722108e+05) (1.504833e+01 3.655504e-18 1.629268e+00)) ((-4.218216e-12 -3.232434e+04 7.949265e-13) (4.624555e-18 1.420667e+01 7.214239e-18))
4.36511e-05   	((1.453166e+04 8.534696e-13 1.021360e+05) (1.505663e+01 3.525672e-18 1.571155e+00)) ((-2.554129e-12 -1.964540e+04 4.705423e-13) (5.392234e-18 1.423838e+01 6.707900e-18))
6.43527e-05   	((9.953395e+03 6.117513e-13 7.205982e+04) (1.506874e+01 3.419741e-18 1.520275e+00)) ((-1.821044e-12 -1.459520e+04 3.345511e-13) (5.746149e-18 1.427438e+01 6.254426e-18))
8.91792e-05   	((7.391874e+03 4.470138e-13 5.180507e+04) (1.508157e+01 3.198336e-18 1.469758e+00)) ((-1.348034e-12 -1.050952e+04 2.427793e-13) (6.072919e-18 1.431417e+01 5.493754e-18))
0.000118941   	((5.246106e+03 3.262638e-13 3.763110e+04) (1.509670e+01 2.965326e-18 1.407896e+00)) ((-9.913581e-13 -7.784344e+03 1.760936e-13) (5.798292e-18 1.436481e+01 4.449227e-18))
0.000154634   	((3.884359e+03 3.373134e-13 3.195936e+04) (1.511584e+01 2.611569e-18 1.327409e+00)) ((-8.334827e-13 -8.084779e+03 2.071800e-13) (5.087340e-18 1.443207e+01 3.135652e-18))
0.000197405   	((3.112684e+03 2.490579e-13 2.422270e+04) (1.513538e+01 1.858272e-18 1.241423e+00)) ((-6.602806e-13 -5.896412e+03 1.493755e-13) (5.363556e-18 1.450449e+01 1.431771e-18))
0.000247538   	((2.628974e+03 1.665471e-13 1.796348e+04) (1.517055e+01 1.413159e-18 1.157374e+00)) ((-5.217801e-13 -3.794444e+03 9.162954e-14) (6.104006e-18 1.458936e+01 -1.115977e-18))
0.000304958   	((2.157968e+03 1.484037e-13 1.525079e+04) (1.522027e+01 1.359040e-18 1.075423e+00)) ((-4.343525e-13 -3.324635e+03 8.458675e-14) (5.566157e-18 1.468977e+01 -3.580972e-18))
0.000369532   	((1.757919e+03 2.262649e-13 1.586156e+04) (1.529389e+01 1.152476e-18 9.986496e-01)) ((-4.488238e-13 -4.909798e+03 1.613739e-13) (3.344870e-18 1.481919e+01 -2.295041e-18))
0.000441176   	((1.639555e+03 1.114683e-13 1.116068e+04) (1.541317e+01 4.062899e-19 9.561488e-01)) ((-3.336298e-13 -2.417140e+03 6.403875e-14) (-2.059720e-19 1.496773e+01 1.367851e-19))
0.000512299   	((1.549191e+03 1.073757e-13 1.026203e+04) (1.555584e+01 2.361714e-19 9.362730e-01)) ((-3.386404e-13 -2.372306e+03 6.242153e-14) (-2.627762e-18 1.513602e+01 5.454447e-18))
0.000583163   	((1.356047e+03 1.630210e-13 1.234406e+04) (1.571753e+01 8.149347e-19 9.155665e-01)) ((-4.623939e-13 -4.061694e+03 9.776569e-14) (-2.043129e-18 1.533108e+01 1.589588e-17))
0.00065377    	((1.389761e+03 8.882234e-14 8.667851e+03) (1.589956e+01 -2.769747e-19 9.200228e-01)) ((-2.879997e-13 -1.845825e+03 4.971993e-14) (-2.539843e-18 1.552642e+01 2.185224e-17))
0.000724376   	((1.404846e+03 8.333330e-14 7.861130e+03) (1.608466e+01 -1.761502e-18 9.489693e-01)) ((-2.831258e-13 -1.630249e+03 4.644556e-14) (-3.215471e-18 1.571183e+01 2.705608e-17))
0.000794725   	((1.041307e+03 1.291782e-13 1.112167e+04) (1.627665e+01 6.637052e-19 9.447312e-01)) ((-4.080814e-13 -4.218179e+03 7.044755e-14) (-4.746524e-18 1.593156e+01 3.232508e-17))
0.000865074   	((1.257472e+03 7.723670e-14 7.364892e+03) (1.647003e+01 6.877532e-19 9.564228e-01)) ((-2.622745e-13 -1.601758e+03 4.262162e-14) (-5.386151e-18 1.613477e+01 3.523563e-17))
0.000935166   	((1.297937e+03 7.245821e-14 6.419363e+03) (1.665151e+01 1.100746e-19 9.856177e-01)) ((-2.616901e-13 -1.302915e+03 3.886637e-14) (-5.112745e-18 1.631600e+01 3.752521e-17))
0.00100526    	((1.191271e+03 6.823858e-14 6.392461e+03) (1.684838e+01 -8.741470e-19 1.020043e+00)) ((-2.419057e-13 -1.339424e+03 3.714205e-14) (-5.306271e-18 1.650202e+01 4.141997e-17))
0.00107535    	((9.680742e+02 9.736220e-14 9.932221e+03) (1.702917e+01 4.116590e-19 1.008525e+00)) ((-3.584002e-13 -4.056401e+03 4.583252e-14) (-6.257850e-18 1.671081e+01 5.055607e-17))
0.00114518    	((1.319463e+03 6.901198e-14 5.910680e+03) (1.719581e+01 3.103260e-19 1.029320e+00)) ((-2.553462e-13 -1.229897e+03 3.688574e-14) (-7.283612e-18 1.688084e+01 5.871999e-17))
0.00121476    	((1.258998e+03 6.532641e-14 5.970474e+03) (1.737274e+01 2.034253e-19 1.046926e+00)) ((-2.392781e-13 -1.199330e+03 3.537933e-14) (-9.233231e-18 1.705883e+01 6.853938e-17))
0.00128407    	((1.321303e+03 6.702483e-14 6.017712e+03) (1.755453e+01 -3.196375e-19 1.074705e+00)) ((-2.452108e-13 -1.206768e+03 3.651955e-14) (-1.430319e-17 1.722641e+01 7.843062e-17))
0.00136141    	((1.264648e+03 5.410552e-14 6.319966e+03) (1.774197e+01 -3.153314e-19 1.089227e+00)) ((-2.868623e-13 -1.770195e+03 1.615456e-14) (-1.537004e-17 1.741257e+01 8.138631e-17))
0.00144073    	((1.256876e+03 4.403560e-14 7.641294e+03) (1.792316e+01 1.606490e-19 1.084067e+00)) ((-3.609275e-13 -2.825140e+03 -6.627023e-15) (-9.791476e-18 1.761628e+01 7.478519e-17))
0.00151903    	((1.707248e+03 6.691248e-14 5.774186e+03) (1.810787e+01 5.845695e-19 1.088411e+00)) ((-2.740441e-13 -9.648785e+02 3.437914e-14) (-7.789521e-18 1.780547e+01 6.639348e-17))
0.00159734    	((2.246149e+03 7.635572e-14 5.972076e+03) (1.832720e+01 7.104564e-19 1.084169e+00)) ((-3.200428e-13 -7.532125e+02 3.992866e-14) (-5.148246e-18 1.802477e+01 5.660043e-17))
0.00167532    	((7.519539e+03 1.681665e-13 7.873666e+03) (1.866101e+01 -5.039113e-19 1.107634e+00)) ((-8.046438e-13 1.189007e+03 8.890241e-14) (6.507548e-18 1.832981e+01 4.520662e-17))
0.00175297    	((2.502426e+03 6.288733e-14 9.460370e+03) (1.890937e+01 -3.572733e-19 1.083993e+00)) ((-3.182190e-13 -3.090217e+03 2.120994e-14) (5.253996e-18 1.859168e+01 3.385048e-17))
0.00182932    	((9.799286e+02 3.669825e-14 5.791578e+03) (1.911772e+01 2.294100e-20 1.065365e+00)) ((-1.932636e-13 -2.276240e+03 1.246132e-14) (2.006278e-18 1.881475e+01 3.242916e-17))
0.00190503    	((9.137573e+02 4.922189e-14 4.427417e+03) (1.931377e+01 4.964310e-19 1.077225e+00)) ((-2.058020e-13 -1.239747e+03 2.523307e-14) (9.765336e-19 1.900630e+01 3.545962e-17))
0.00198011    	((7.122555e+02 5.196686e-14 5.178073e+03) (1.952334e+01 1.356908e-18 1.065582e+00)) ((-1.990166e-13 -1.743131e+03 2.590509e-14) (7.940642e-19 1.921685e+01 3.790452e-17))
0.0020505     	((9.430316e+02 5.208113e-14 4.482498e+03) (1.970379e+01 1.015274e-18 1.132531e+00)) ((-2.076833e-13 -1.721737e+03 2.897600e-14) (-3.170298e-18 1.935491e+01 3.762592e-17))
0.00211823    	((1.693606e+02 4.757683e-14 1.131477e+04) (1.986480e+01 5.795283e-19 1.091342e+00)) ((-2.499516e-13 -6.599348e+03 2.625410e-15) (-3.255446e-18 1.955482e+01 4.127422e-17))
0.00218597    	((4.910271e+02 5.070843e-14 5.739808e+03) (2.001616e+01 6.847602e-19 1.088867e+00)) ((-1.988934e-13 -2.395098e+03 2.272548e-14) (-3.755022e-18 1.971370e+01 4.175086e-17))
0.00225244    	((5.859680e+02 5.452440e-14 5.220464e+03) (2.014333e+01 1.406198e-18 1.122401e+00)) ((-2.253457e-13 -2.184588e+03 2.532104e-14) (-3.042797e-18 1.982829e+01 4.375600e-17))
0.00231916    	((7.148267e+02 4.659376e-14 4.238316e+03) (2.028322e+01 1.613154e-18 1.155116e+00)) ((-2.007886e-13 -1.837910e+03 2.341801e-14) (-2.828572e-18 1.994233e+01 4.500198e-17))
0.00238664    	((3.609593e+02 5.140910e-14 5.951990e+03) (2.043769e+01 1.230082e-18 1.192654e+00)) ((-1.894158e-13 -2.693985e+03 2.323725e-14) (-1.923196e-18 2.005505e+01 4.352167e-17))
0.00245439    	((-4.797721e+02 8.793875e-14 1.821821e+04) (2.054892e+01 6.148053e-19 1.133655e+00)) ((-3.610981e-13 -1.289264e+04 1.177903e-14) (-3.381506e-18 2.023613e+01 3.791941e-17))
0.00250272    	((9.045238e+02 2.654253e-14 1.546871e+03) (2.063016e+01 3.097088e-19 1.139325e+00)) ((-1.503698e-13 3.300415e+01 1.303610e-14) (-6.004541e-18 2.032449e+01 3.150111e-17))
0.00255187    	((5.488863e+02 3.349205e-14 3.308200e+03) (2.070388e+01 3.927240e-19 1.126242e+00)) ((-1.394321e-13 -7.082728e+02 1.640141e-14) (-8.170495e-18 2.041125e+01 2.575856e-17))
0.00260061    	((5.344702e+02 4.390105e-14 4.088518e+03) (2.078783e+01 2.804524e-19 1.103508e+00)) ((-1.619602e-13 -1.184847e+03 2.271293e-14) (-1.142386e-17 2.051121e+01 1.985943e-17))
0.00265163    	((8.722734e+02 6.180118e-14 2.747619e+03) (2.087198e+01 1.109811e-20 1.136530e+00)) ((-2.965064e-13 -9.527091e+02 3.217601e-14) (-5.708122e-18 2.059374e+01 1.215223e-17))
0.00270469    	((4.049646e+02 4.860121e-14 3.571925e+03) (2.096019e+01 -2.036324e-20 1.134558e+00)) ((-1.389056e-13 -1.156176e+03 3.073350e-14) (-5.560050e-18 2.069013e+01 9.039512e-18))
0.00275925    	((3.677144e+02 4.738091e-14 3.306441e+03) (2.104815e+01 -2.462262e-19 1.131865e+00)) ((-1.335172e-13 -1.067271e+03 3.051127e-14) (-6.053007e-18 2.078658e+01 6.845754e-18))
0.0028145     	((3.203008e+02 4.902424e-14 3.514676e+03) (2.115181e+01 1.718538e-19 1.129683e+00)) ((-1.562116e-13 -1.268688e+03 2.889968e-14) (-6.053171e-18 2.089965e+01 5.299995e-18))
0.00287012    	((3.070258e+02 4.932043e-14 3.754560e+03) (2.126157e+01 7.310045e-19 1.136657e+00)) ((-1.634482e-13 -1.503035e+03 2.769482e-14) (-5.974466e-18 2.101846e+01 2.197797e-18))
0.00292666    	((4.231254e+02 3.765750e-14 2.521535e+03) (2.137771e+01 2.798826e-19 1.163834e+00)) ((-1.720234e-13 -1.056301e+03 1.785289e-14) (-4.525084e-18 2.113749e+01 8.486107e-19))
0.00298493    	((5.946987e+02 3.143328e-14 1.067835e+03) (2.152700e+01 1.216156e-19 1.169332e+00)) ((-1.905480e-13 -2.088424e+02 1.432145e-14) (-3.696023e-18 2.129383e+01 -5.339743e-18))
0.00304463    	((2.312008e+02 2.345656e-14 3.815921e+03) (2.170061e+01 3.427668e-19 1.158291e+00)) ((-1.693179e-13 -1.672252e+03 -2.864255e-16) (-3.832729e-18 2.147946e+01 -9.365400e-18))
0.00310518    	((2.948575e+02 2.608930e-14 2.441086e+03) (2.191359e+01 7.888995e-19 1.145952e+00)) ((-1.137273e-13 -7.116245e+02 1.254376e-14) (-4.548009e-18 2.170321e+01 -1.297386e-17))
0.00316552    	((1.697857e+02 1.853897e-14 4.387513e+03) (2.216624e+01 1.063348e-18 1.134489e+00)) ((-9.930626e-14 -2.177984e+03 2.520874e-15) (-4.484255e-18 2.196700e+01 -1.732639e-17))
0.00322522    	((1.104716e+02 5.505914e-14 6.321670e+03) (2.245495e+01 1.641291e-18 1.131604e+00)) ((-2.397748e-13 -4.077039e+03 1.296015e-14) (-4.750436e-18 2.226717e+01 -8.954627e-18))
0.00327797    	((-3.042376e+02 5.817255e-14 1.233662e+04) (2.270994e+01 1.295934e-18 1.137386e+00)) ((-2.987333e-13 -8.831124e+03 5.763247e-15) (-1.960999e-18 2.252429e+01 -6.633119e-18))
0.00332232    	((2.059012e+02 5.366331e-14 6.025323e+03) (2.291333e+01 1.272515e-18 1.142784e+00)) ((-2.170235e-13 -3.393311e+03 2.151507e-14) (5.921155e-20 2.272241e+01 -4.782527e-18))
0.00336645    	((2.743548e+02 2.627879e-14 2.834207e+03) (2.311116e+01 1.262856e-18 1.133927e+00)) ((-1.191023e-13 -1.050555e+03 1.136037e-14) (1.509967e-18 2.292096e+01 -1.875134e-18))
0.00341165    	((2.616357e+02 2.595149e-14 2.827994e+03) (2.330288e+01 1.261434e-18 1.121244e+00)) ((-1.178507e-13 -1.074475e+03 1.115326e-14) (2.799174e-18 2.311457e+01 1.004284e-18))
0.00345824    	((2.332533e+02 2.610153e-14 2.942738e+03) (2.350934e+01 1.279517e-18 1.108228e+00)) ((-1.174634e-13 -1.183410e+03 1.104460e-14) (3.980115e-18 2.332153e+01 4.005756e-18))
0.00350344    	((2.555684e+02 2.632005e-14 2.803734e+03) (2.377134e+01 1.265880e-18 1.104907e+00)) ((-1.181473e-13 -1.115772e+03 1.115665e-14) (4.275787e-18 2.357609e+01 1.059641e-17))
0.00355004    	((5.838103e+02 4.008532e-14 7.277668e+02) (2.421925e+01 9.074231e-19 1.137585e+00)) ((-1.531719e-13 -5.076999e+02 1.471149e-14) (2.386778e-18 2.399804e+01 2.117409e-17))
0.00359786    	((1.777304e+02 3.125066e-14 3.729411e+03) (2.469136e+01 9.206013e-19 1.159202e+00)) ((-1.298984e-13 -1.769768e+03 1.291624e-14) (2.102832e-18 2.443793e+01 2.759115e-17))
0.00364639    	((2.054287e+02 2.545942e-14 2.905192e+03) (2.520677e+01 8.943943e-19 1.180873e+00)) ((-1.139043e-13 -1.223818e+03 1.060353e-14) (2.210328e-18 2.491671e+01 3.459743e-17))
0.00369564    	((2.018344e+02 2.484530e-14 2.812999e+03) (2.579209e+01 8.830262e-19 1.205679e+00)) ((-1.123607e-13 -1.184636e+03 1.027651e-14) (2.450637e-18 2.545973e+01 4.162761e-17))
0.0037455     	((1.916860e+02 2.450517e-14 2.819403e+03) (2.643773e+01 8.661325e-19 1.234221e+00)) ((-1.108700e-13 -1.191361e+03 1.014929e-14) (2.741800e-18 2.605696e+01 4.873145e-17))
0.00379583    	((2.002199e+02 2.374945e-14 2.693097e+03) (2.709306e+01 8.470549e-19 1.264762e+00)) ((-1.091152e-13 -1.113572e+03 9.854332e-15) (3.011790e-18 2.666194e+01 5.443941e-17))
0.00384662    	((1.965402e+02 2.404376e-14 2.722773e+03) (2.768960e+01 8.419210e-19 1.289785e+00)) ((-1.104729e-13 -1.154444e+03 9.885350e-15) (3.312114e-18 2.721260e+01 5.958974e-17))
0.0038979     	((1.725157e+02 2.417809e-14 2.856338e+03) (2.821667e+01 8.010758e-19 1.311208e+00)) ((-1.100614e-13 -1.250930e+03 9.822984e-15) (3.642510e-18 2.769856e+01 6.404930e-17))
0.00394935    	((1.591148e+02 2.439188e-14 2.922845e+03) (2.867862e+01 7.377441e-19 1.331751e+00)) ((-1.102045e-13 -1.306351e+03 9.871171e-15) (3.940677e-18 2.812315e+01 6.783200e-17))
0.00400079    	((1.796525e+02 2.166785e-14 2.469367e+03) (2.907955e+01 6.229995e-19 1.353507e+00)) ((-1.019392e-13 -9.937875e+02 8.981097e-15) (4.233671e-18 2.848928e+01 7.099501e-17))
0.00405257    	((1.723839e+02 2.162298e-14 2.484178e+03) (2.942015e+01 4.147028e-19 1.402155e+00)) ((-1.016900e-13 -1.019137e+03 8.939392e-15) (4.014042e-18 2.878875e+01 7.355390e-17))
0.00410469    	((5.300525e+02 1.824896e-14 -2.290310e+02) (2.980173e+01 -7.345538e-21 1.455658e+00)) ((-1.190888e-13 -1.166599e+02 7.237122e-15) (3.921305e-18 2.913431e+01 7.180528e-17))
0.00415732    	((1.981993e+02 2.103990e-14 2.290603e+03) (3.006662e+01 -2.086533e-19 1.495220e+00)) ((-1.014681e-13 -9.104937e+02 8.760828e-15) (4.282560e-18 2.936546e+01 7.397793e-17))
0.00421048    	((1.794623e+02 2.079473e-14 2.316673e+03) (3.028973e+01 -3.852139e-19 1.535692e+00)) ((-9.993752e-14 -9.335695e+02 8.599871e-15) (4.785317e-18 2.955595e+01 7.627571e-17))
0.00426401    	((1.713205e+02 2.044454e-14 2.299535e+03) (3.047402e+01 -5.955271e-19 1.578399e+00)) ((-9.836102e-14 -9.240006e+02 8.451879e-15) (5.428859e-18 2.970816e+01 7.850365e-17))
0.00431808    	((1.680679e+02 2.114328e-14 2.406373e+03) (3.062521e+01 -8.030162e-19 1.623760e+00)) ((-1.006523e-13 -1.003261e+03 8.678815e-15) (6.150735e-18 2.982763e+01 8.067104e-17))
0.00437235    	((1.667129e+02 1.946419e-14 2.176517e+03) (3.074590e+01 -1.053676e-18 1.669353e+00)) ((-9.490566e-14 -8.462193e+02 8.084846e-15) (7.002511e-18 2.991807e+01 8.268687e-17))
0.00442699    	((1.676506e+02 1.915598e-14 2.126687e+03) (3.084266e+01 -1.173589e-18 1.702961e+00)) ((-9.416555e-14 -8.207806e+02 7.944759e-15) (8.111470e-18 2.999157e+01 8.472599e-17))
0.00448144    	((1.605631e+02 1.877154e-14 2.091754e+03) (3.091916e+01 -8.701061e-19 1.704748e+00)) ((-9.250102e-14 -8.002830e+02 7.796007e-15) (9.276547e-18 3.006093e+01 8.688574e-17))
0.00453686    	((1.729056e+02 1.881176e-14 2.050961e+03) (3.101096e+01 -6.090106e-19 1.669096e+00)) ((-9.339921e-14 -7.794888e+02 7.819581e-15) (9.761811e-18 3.016528e+01 8.859775e-17))
0.0045933     	((1.686022e+02 1.856283e-14 2.024621e+03) (3.118500e+01 -5.868334e-19 1.590852e+00)) ((-9.253550e-14 -7.687896e+02 7.699583e-15) (8.806341e-18 3.037723e+01 9.015637e-17))
0.00464932    	((1.546155e+02 1.809700e-14 2.014733e+03) (3.145698e+01 -3.125885e-19 1.427727e+00)) ((-9.036344e-14 -7.647458e+02 7.481260e-15) (2.645264e-18 3.073219e+01 8.179619e-17))
0.00470395    	((1.538096e+02 1.797874e-14 1.996795e+03) (3.170640e+01 -4.399169e-21 1.210047e+00)) ((-8.998553e-14 -7.560551e+02 7.430716e-15) (-6.669157e-18 3.109067e+01 7.503341e-17))
0.00475688    	((1.570696e+02 1.830149e-14 1.922295e+03) (3.194662e+01 -8.234697e-20 9.777864e-01)) ((-9.142881e-14 -7.338180e+02 7.492779e-15) (-1.526913e-17 3.145333e+01 7.060641e-17))
0.0048082     	((4.210767e+02 3.265932e-14 -2.357814e+02) (3.241207e+01 -4.783459e-19 6.354947e-01)) ((-1.556432e-13 -4.341908e+01 1.195141e-14) (-1.795053e-17 3.210686e+01 7.721490e-17))
0.00485884    	((1.441190e+02 1.830980e-14 2.109715e+03) (3.273204e+01 -9.951343e-19 1.862359e-01)) ((-9.102531e-14 -8.317219e+02 7.450427e-15) (-2.009326e-17 3.265560e+01 8.054561e-17))
0.00491087    	((1.436786e+02 1.832904e-14 2.123765e+03) (3.304258e+01 -1.868599e-18 -2.963042e-01)) ((-9.175762e-14 -8.558691e+02 7.357514e-15) (-2.287765e-17 3.321063e+01 8.434383e-17))
0.00496326    	((1.364438e+02 1.795109e-14 2.067785e+03) (3.350154e+01 -1.350821e-18 -8.075813e-01)) ((-8.995234e-14 -8.282530e+02 7.204510e-15) (-2.883955e-17 3.393749e+01 8.155641e-17))
0.00501716    	((1.356703e+02 1.783108e-14 2.052304e+03) (3.418656e+01 -1.541679e-18 -1.661855e+00)) ((-8.987465e-14 -8.260680e+02 7.123868e-15) (-5.047255e-17 3.504361e+01 6.692683e-17))
0.00507457    	((1.350431e+02 1.851402e-14 1.985341e+03) (3.491505e+01 -1.938437e-18 -2.620554e+00)) ((-9.212011e-14 -8.099397e+02 7.312497e-15) (-7.135033e-17 3.624494e+01 5.758429e-17))
0.00513427    	((1.325431e+02 1.768967e-14 1.949116e+03) (3.583956e+01 -2.415054e-18 -3.751301e+00)) ((-9.010740e-14 -8.069048e+02 6.959259e-15) (-8.275708e-17 3.772716e+01 5.445017e-17))
0.00519544    	((1.322933e+02 1.750719e-14 1.940934e+03) (3.679919e+01 -3.001174e-18 -5.003305e+00)) ((-8.943181e-14 -7.981961e+02 6.892031e-15) (-9.142404e-17 3.930239e+01 5.132645e-17))
0.00525687    	((1.260737e+02 1.746895e-14 2.009431e+03) (3.771649e+01 -4.690406e-18 -6.261379e+00)) ((-8.876729e-14 -8.257676e+02 6.887289e-15) (-9.892749e-17 4.084365e+01 4.675574e-17))
0.00531988    	((1.237523e+02 1.713338e-14 1.982662e+03) (3.858403e+01 -7.130601e-18 -7.548083e+00)) ((-8.757628e-14 -8.120907e+02 6.723709e-15) (-1.064562e-16 4.235266e+01 4.195753e-17))
0.00538455    	((1.287545e+02 1.724579e-14 1.980750e+03) (3.938114e+01 -7.327308e-18 -8.868863e+00)) ((-8.846430e-14 -8.174580e+02 6.737635e-15) (-1.164236e-16 4.380951e+01 3.923708e-17))
0.00544727    	((1.179866e+02 1.694481e-14 1.964551e+03) (4.007189e+01 -7.703581e-18 -1.015237e+01)) ((-8.687319e-14 -8.087308e+02 6.624957e-15) (-1.252756e-16 4.514327e+01 3.787249e-17))
0.00551167    	((1.200322e+02 1.684840e-14 1.947393e+03) (4.068012e+01 -9.427491e-18 -1.144472e+01)) ((-8.673722e-14 -7.985550e+02 6.597283e-15) (-1.322493e-16 4.640220e+01 3.689348e-17))
0.0055728     	((1.187258e+02 1.686393e-14 1.954736e+03) (4.117836e+01 -1.187897e-17 -1.264740e+01)) ((-8.673734e-14 -8.054134e+02 6.590264e-15) (-1.377295e-16 4.751086e+01 3.657266e-17))
0.00563664    	((1.241828e+02 1.844861e-14 1.811391e+03) (4.159441e+01 -1.407714e-17 -1.384161e+01)) ((-8.772009e-14 -7.574975e+02 7.068972e-15) (-1.436863e-16 4.853911e+01 3.649692e-17))
0.00569963    	((1.792646e+02 3.726277e-14 4.577540e+02) (4.195749e+01 -1.597595e-17 -1.492845e+01)) ((-1.014610e-13 -3.403306e+02 1.280158e-14) (-1.519364e-16 4.947310e+01 3.301753e-17))
0.00576263    	((1.248774e+02 1.648473e-14 1.908503e+03) (4.217908e+01 -1.836819e-17 -1.596821e+01)) ((-8.546170e-14 -7.716417e+02 6.494150e-15) (-1.588217e-16 5.024065e+01 2.924564e-17))
0.00582591    	((1.253746e+02 1.635515e-14 1.895881e+03) (4.232373e+01 -1.961783e-17 -1.694223e+01)) ((-8.527912e-14 -7.654715e+02 6.414972e-15) (-1.679147e-16 5.090175e+01 2.476644e-17))
0.00588808    	((1.252585e+02 1.629788e-14 1.865602e+03) (4.240276e+01 -2.011655e-17 -1.783333e+01)) ((-8.523689e-14 -7.508237e+02 6.404190e-15) (-1.787079e-16 5.145706e+01 1.930529e-17))
0.00595402    	((1.250685e+02 1.597839e-14 1.816350e+03) (4.241963e+01 -2.095839e-17 -1.869923e+01)) ((-8.382238e-14 -7.196765e+02 6.291530e-15) (-1.910155e-16 5.194030e+01 1.211917e-17))
0.0060209     	((1.253031e+02 1.600034e-14 1.818134e+03) (4.238846e+01 -2.170461e-17 -1.950653e+01)) ((-8.410797e-14 -7.212761e+02 6.324647e-15) (-2.047213e-16 5.234678e+01 4.607838e-18))
0.00608747    	((1.240938e+02 1.626641e-14 1.762224e+03) (4.231992e+01 -2.256714e-17 -2.024376e+01)) ((-8.317331e-14 -7.003511e+02 6.340445e-15) (-2.194664e-16 5.268034e+01 -2.774188e-18))
0.00615341    	((1.206402e+02 1.637450e-14 1.766725e+03) (4.221894e+01 -2.422960e-17 -2.091226e+01)) ((-8.292545e-14 -7.063968e+02 6.361642e-15) (-2.340278e-16 5.294572e+01 -1.028722e-17))
0.00622299    	((1.219599e+02 1.566957e-14 1.748084e+03) (4.207741e+01 -2.639987e-17 -2.154495e+01)) ((-8.242745e-14 -6.867525e+02 6.138196e-15) (-2.488333e-16 5.315253e+01 -1.785600e-17))
0.00629437    	((1.249217e+02 1.630153e-14 1.632000e+03) (4.190262e+01 -2.815222e-17 -2.211596e+01)) ((-8.363522e-14 -6.454931e+02 6.318898e-15) (-2.628915e-16 5.329251e+01 -2.567846e-17))
0.00636466    	((1.243941e+02 1.568270e-14 1.720322e+03) (4.170490e+01 -3.017843e-17 -2.260758e+01)) ((-8.270797e-14 -6.738669e+02 6.164933e-15) (-2.733202e-16 5.336416e+01 -3.522064e-17))
0.00643757    	((1.193638e+02 1.548547e-14 1.737193e+03) (4.147523e+01 -3.302357e-17 -2.303636e+01)) ((-8.197647e-14 -6.862462e+02 6.049469e-15) (-2.780001e-16 5.336883e+01 -4.859911e-17))
0.00651128    	((1.199528e+02 1.525660e-14 1.696272e+03) (4.123802e+01 -3.531063e-17 -2.338363e+01)) ((-8.101150e-14 -6.579291e+02 5.989076e-15) (-2.756639e-16 5.332197e+01 -6.578683e-17))
0.00658419    	((1.228160e+02 1.537943e-14 1.691217e+03) (4.101945e+01 -3.251182e-17 -2.362626e+01)) ((-8.166931e-14 -6.558224e+02 6.063178e-15) (-2.694808e-16 5.323699e+01 -8.299846e-17))
0.00665518    	((1.225555e+02 1.519848e-14 1.667156e+03) (4.082378e+01 -3.497242e-17 -2.381527e+01)) ((-8.105304e-14 -6.416820e+02 5.984681e-15) (-2.582482e-16 5.314596e+01 -1.078358e-16))
0.00672397    	((1.383850e+02 2.290139e-14 1.021961e+03) (4.067723e+01 -3.773463e-17 -2.393488e+01)) ((-9.588906e-14 -4.424574e+02 8.527787e-15) (-2.491642e-16 5.306920e+01 -1.351983e-16))
0.00679068    	((1.416656e+02 2.272545e-14 1.062335e+03) (4.056182e+01 -4.024858e-17 -2.398769e+01)) ((-9.604323e-14 -4.596419e+02 8.515124e-15) (-2.475063e-16 5.299307e+01 -1.636973e-16))
0.00685607    	((1.288509e+02 1.543385e-14 1.605664e+03) (4.043335e+01 -4.275309e-17 -2.402646e+01)) ((-8.186124e-14 -6.176058e+02 6.063004e-15) (-2.551098e-16 5.289343e+01 -1.923416e-16))
0.00692562    	((1.240001e+02 1.508793e-14 1.605031e+03) (4.030281e+01 -4.555563e-17 -2.404451e+01)) ((-8.061847e-14 -6.114899e+02 5.935077e-15) (-2.760986e-16 5.278089e+01 -2.225572e-16))
0.00698478    	((1.239628e+02 1.510803e-14 1.597098e+03) (4.019240e+01 -4.804140e-17 -2.404465e+01)) ((-8.063878e-14 -6.064620e+02 5.950275e-15) (-3.045879e-16 5.267798e+01 -2.462655e-16))
0.00704448    	((1.238686e+02 1.492411e-14 1.596305e+03) (4.007057e+01 -5.030161e-17 -2.402882e+01)) ((-8.019719e-14 -6.035505e+02 5.886566e-15) (-3.432330e-16 5.255529e+01 -2.658955e-16))
0.00710446    	((1.211848e+02 1.511876e-14 1.641848e+03) (3.993161e+01 -5.240619e-17 -2.399488e+01)) ((-8.095038e-14 -6.370579e+02 5.929571e-15) (-3.898551e-16 5.240600e+01 -2.800028e-16))
0.007165      	((1.216835e+02 1.465961e-14 1.592316e+03) (3.980042e+01 -5.468597e-17 -2.392280e+01)) ((-7.938100e-14 -6.009369e+02 5.775815e-15) (-4.376430e-16 5.224467e+01 -2.927105e-16))
0.00722612    	((1.239826e+02 1.498766e-14 1.603175e+03) (3.974904e+01 -5.802577e-17 -2.375503e+01)) ((-8.052605e-14 -6.114539e+02 5.927480e-15) (-4.720000e-16 5.211234e+01 -3.156740e-16))
0.00728783    	((1.230720e+02 1.469837e-14 1.585456e+03) (3.970643e+01 -6.059805e-17 -2.361102e+01)) ((-7.965297e-14 -6.001900e+02 5.800438e-15) (-5.128116e-16 5.200346e+01 -3.331975e-16))
0.00735045    	((1.224138e+02 1.430022e-14 1.555256e+03) (3.966345e+01 -6.238143e-17 -2.349145e+01)) ((-7.838493e-14 -5.789703e+02 5.641799e-15) (-5.580802e-16 5.190780e+01 -3.422254e-16))
0.00741466    	((1.226770e+02 1.423406e-14 1.544707e+03) (3.960861e+01 -6.406619e-17 -2.340581e+01)) ((-7.825229e-14 -5.746832e+02 5.608887e-15) (-6.061408e-16 5.181970e+01 -3.401770e-16))
0.0074809     	((1.204970e+02 1.438596e-14 1.568120e+03) (3.953459e+01 -6.535606e-17 -2.337772e+01)) ((-7.875383e-14 -5.945789e+02 5.628489e-15) (-6.553649e-16 5.174356e+01 -3.237196e-16))
0.00754857    	((1.212937e+02 1.421002e-14 1.544888e+03) (3.943739e+01 -6.547618e-17 -2.338828e+01)) ((-7.810076e-14 -5.756813e+02 5.585048e-15) (-7.035103e-16 5.166482e+01 -2.903280e-16))
0.0076148     	((1.221447e+02 1.421628e-14 1.537395e+03) (3.933646e+01 -6.446216e-17 -2.342504e+01)) ((-7.808715e-14 -5.697897e+02 5.603579e-15) (-7.444665e-16 5.159674e+01 -2.449706e-16))
0.00768175    	((1.222279e+02 1.425711e-14 1.538316e+03) (3.921611e+01 -6.332526e-17 -2.347415e+01)) ((-7.826456e-14 -5.721058e+02 5.611946e-15) (-7.800287e-16 5.151516e+01 -1.911222e-16))
0.00775018    	((1.233419e+02 1.421379e-14 1.520474e+03) (3.907947e+01 -6.225036e-17 -2.353150e+01)) ((-7.811329e-14 -5.609748e+02 5.608269e-15) (-8.088158e-16 5.142091e+01 -1.321797e-16))
0.00782018    	((1.231629e+02 1.423605e-14 1.523965e+03) (3.893182e+01 -6.128142e-17 -2.359222e+01)) ((-7.820217e-14 -5.642806e+02 5.615358e-15) (-8.297556e-16 5.131662e+01 -7.170482e-17))
0.00789225    	((1.215637e+02 1.415680e-14 1.525018e+03) (3.877682e+01 -6.031089e-17 -2.365157e+01)) ((-7.804001e-14 -5.687643e+02 5.547387e-15) (-8.434000e-16 5.120340e+01 -1.226490e-17))
0.00796563    	((1.212363e+02 1.389483e-14 1.506522e+03) (3.862980e+01 -5.941020e-17 -2.370822e+01)) ((-7.711904e-14 -5.528192e+02 5.460280e-15) (-8.504199e-16 5.109641e+01 4.378726e-17))
0.00803946    	((1.217148e+02 1.381818e-14 1.490945e+03) (3.849261e+01 -5.858987e-17 -2.375495e+01)) ((-7.685586e-14 -5.430977e+02 5.438795e-15) (-8.506368e-16 5.099294e+01 9.498236e-17))
0.00811422    	((1.217025e+02 1.385022e-14 1.490820e+03) (3.837660e+01 -5.771922e-17 -2.378603e+01)) ((-7.701130e-14 -5.452362e+02 5.444340e-15) (-8.436045e-16 5.090146e+01 1.388456e-16))
0.00818992    	((1.223836e+02 1.382178e-14 1.477505e+03) (3.838076e+01 -5.687635e-17 -2.374925e+01)) ((-7.692475e-14 -5.376286e+02 5.439375e-15) (-8.212691e-16 5.089489e+01 1.567697e-16))
0.00826661    	((1.215179e+02 1.397055e-14 1.489183e+03) (3.834911e+01 -5.461502e-17 -2.371468e+01)) ((-7.745191e-14 -5.508971e+02 5.473715e-15) (-7.991349e-16 5.085177e+01 1.761746e-16))
0.00834432    	((1.349444e+02 1.544104e-14 6.908520e+02) (3.835258e+01 -5.252224e-17 -2.367170e+01)) ((-7.792012e-14 -2.926690e+02 5.554797e-15) (-7.754472e-16 5.084309e+01 1.898711e-16))
0.00842254    	((1.250837e+02 1.393149e-14 1.427925e+03) (3.827807e+01 -5.094919e-17 -2.362699e+01)) ((-7.733173e-14 -5.221136e+02 5.463913e-15) (-7.511119e-16 5.075324e+01 2.030713e-16))
0.00848101    	((1.243757e+02 1.376418e-14 1.437169e+03) (3.820666e+01 -5.080001e-17 -2.356080e+01)) ((-7.689623e-14 -5.190265e+02 5.405204e-15) (-7.363267e-16 5.065245e+01 2.095123e-16))
0.00853978    	((1.224922e+02 1.374822e-14 1.448910e+03) (3.812270e+01 -5.066146e-17 -2.349773e+01)) ((-7.675972e-14 -5.254294e+02 5.407913e-15) (-7.205045e-16 5.054357e+01 2.147309e-16))
0.00859916    	((1.230668e+02 1.369352e-14 1.439018e+03) (3.803194e+01 -5.067482e-17 -2.342079e+01)) ((-7.668980e-14 -5.193727e+02 5.391742e-15) (-7.060279e-16 5.042230e+01 2.194023e-16))
0.00865917    	((1.223986e+02 1.378759e-14 1.452979e+03) (3.793486e+01 -5.085349e-17 -2.333302e+01)) ((-7.709027e-14 -5.311262e+02 5.423580e-15) (-6.935576e-16 5.029002e+01 2.232737e-16))
0.00871981    	((1.232260e+02 1.385706e-14 1.440501e+03) (3.783134e+01 -5.112242e-17 -2.324470e+01)) ((-7.740645e-14 -5.273839e+02 5.441725e-15) (-6.829525e-16 5.015149e+01 2.253511e-16))
0.00878145    	((1.223127e+02 1.351548e-14 1.424015e+03) (3.773252e+01 -5.130928e-17 -2.315538e+01)) ((-7.629555e-14 -5.103956e+02 5.325137e-15) (-6.739730e-16 5.001812e+01 2.245907e-16))
0.00884413    	((1.226225e+02 1.356905e-14 1.424746e+03) (3.763806e+01 -5.160384e-17 -2.308332e+01)) ((-7.639967e-14 -5.113475e+02 5.352347e-15) (-6.673555e-16 4.989604e+01 2.208798e-16))
0.00890824    	((1.225988e+02 1.354125e-14 1.423030e+03) (3.755292e+01 -5.209228e-17 -2.302906e+01)) ((-7.625377e-14 -5.113155e+02 5.324696e-15) (-6.626043e-16 4.979019e+01 2.141323e-16))
0.00897426    	((1.223310e+02 1.356759e-14 1.427589e+03) (3.747826e+01 -5.285174e-17 -2.298343e+01)) ((-7.621157e-14 -5.139955e+02 5.336757e-15) (-6.587455e-16 4.969777e+01 2.045491e-16))
0.00904191    	((1.222976e+02 1.354367e-14 1.424620e+03) (3.741477e+01 -5.420424e-17 -2.293938e+01)) ((-7.611204e-14 -5.128043e+02 5.320423e-15) (-6.548500e-16 4.961626e+01 1.933614e-16))
0.0091117     	((1.208040e+02 1.346408e-14 1.431038e+03) (3.740083e+01 -5.609411e-17 -2.291075e+01)) ((-7.587813e-14 -5.178666e+02 5.264230e-15) (-6.496626e-16 4.959467e+01 1.855373e-16))
0.00918429    	((1.206732e+02 1.355711e-14 1.433647e+03) (3.744569e+01 -5.789889e-17 -2.294796e+01)) ((-7.618611e-14 -5.235132e+02 5.287116e-15) (-6.395361e-16 4.967192e+01 1.847866e-16))
0.00925993    	((1.213206e+02 1.347155e-14 1.419570e+03) (3.748010e+01 -5.948656e-17 -2.302705e+01)) ((-7.592470e-14 -5.142944e+02 5.255519e-15) (-6.259457e-16 4.976170e+01 1.895346e-16))
0.0093389     	((1.197357e+02 1.331740e-14 1.423458e+03) (3.750430e+01 -6.101112e-17 -2.310840e+01)) ((-7.541664e-14 -5.154171e+02 5.182390e-15) (-6.117817e-16 4.984130e+01 1.888531e-16))
0.00942091    	((1.194807e+02 1.325885e-14 1.418160e+03) (3.752233e+01 -6.293998e-17 -2.318840e+01)) ((-7.525774e-14 -5.135203e+02 5.145698e-15) (-5.954905e-16 4.991271e+01 1.848594e-16))
0.00950487    	((1.192309e+02 1.347904e-14 1.433234e+03) (3.753072e+01 -6.566707e-17 -2.327521e+01)) ((-7.594678e-14 -5.275601e+02 5.222981e-15) (-5.759914e-16 4.998166e+01 1.772100e-16))
0.00958951    	((1.177474e+02 1.348468e-14 1.445730e+03) (3.749225e+01 -6.624502e-17 -2.335987e+01)) ((-7.600039e-14 -5.379752e+02 5.195176e-15) (-5.534403e-16 4.999882e+01 1.654619e-16))
0.00965074    	((1.120562e+02 1.383204e-14 1.525920e+03) (3.749090e+01 -6.503682e-17 -2.403748e+01)) ((-7.715042e-14 -5.956846e+02 5.256678e-15) (-4.696057e-16 5.041781e+01 1.384995e-16))