# Forces      
# CofR        : (0.000000e+00 0.000000e+00 -1.000000e+00)
# Time        forces(pressure viscous)	moments(pressure viscous)
0             	((5.684342e-14 -3.955919e-14 9.094947e-13) (9.226211e+00 3.299871e-18 1.210752e+00)) ((-5.701534e-14 0.000000e+00 -2.905862e-14) (-1.848158e-17 8.629029e+00 1.126407e-16))
1.19976e-05   	((1.915232e+05 1.690236e-12 1.009319e+06) (9.290631e+00 3.319477e-18 1.106924e+00)) ((-3.378238e-11 -1.244270e+05 3.666022e-12) (-1.021094e-17 8.725714e+00 1.110387e-16))
2.63878e-05   	((2.921980e+04 1.795520e-13 1.647250e+05) (9.301237e+00 2.846978e-18 1.075333e+00)) ((-5.281156e-12 -2.610600e+04 4.737850e-13) (-6.824998e-18 8.742580e+00 1.104097e-16))
4.36511e-05   	((1.661561e+04 8.906390e-14 9.200499e+04) (9.321662e+00 2.616943e-18 1.062730e+00)) ((-3.147205e-12 -1.499003e+04 2.438545e-13) (-4.876740e-18 8.766057e+00 1.106714e-16))
6.43527e-05   	((1.055140e+04 6.009222e-14 6.453715e+04) (9.350536e+00 2.507589e-18 1.055228e+00)) ((-2.089605e-12 -1.147825e+04 1.637648e-13) (-3.794747e-18 8.796552e+00 1.108970e-16))
8.91792e-05   	((8.252728e+03 4.256588e-14 4.666547e+04) (9.385294e+00 2.580511e-18 1.050718e+00)) ((-1.567326e-12 -7.905195e+03 1.189550e-13) (-3.199500e-18 8.831799e+00 1.114056e-16))
0.000118941   	((5.571366e+03 2.488545e-14 3.368039e+04) (9.423055e+00 3.105861e-18 1.050696e+00)) ((-1.119301e-12 -6.063427e+03 7.888818e-14) (-3.472599e-18 8.867603e+00 1.124616e-16))
0.000154634   	((5.101565e+03 2.080048e-14 2.629948e+04) (9.471068e+00 3.249970e-18 1.049886e+00)) ((-9.435709e-13 -4.218703e+03 6.330978e-14) (-3.216934e-18 8.914756e+00 1.133066e-16))
0.000197405   	((3.467803e+03 1.057155e-14 1.968009e+04) (9.524580e+00 3.383069e-18 1.050636e+00)) ((-6.839226e-13 -3.429016e+03 4.379612e-14) (-3.050230e-18 8.967212e+00 1.143270e-16))
0.000248707   	((2.870292e+03 6.161542e-14 2.195751e+04) (9.591678e+00 3.322801e-18 1.048527e+00)) ((-5.916813e-13 -6.629445e+03 9.540274e-14) (-4.354880e-18 9.036124e+00 1.155491e-16))
0.000310237   	((2.676049e+03 1.017344e-14 1.212985e+04) (9.669185e+00 3.361423e-18 1.056365e+00)) ((-4.805988e-13 -1.967029e+03 3.100458e-14) (-4.573727e-18 9.108823e+00 1.180125e-16))
0.000383982   	((2.279919e+03 4.402548e-15 1.038063e+04) (9.763611e+00 3.407545e-18 1.060832e+00)) ((-4.092959e-13 -1.599196e+03 2.351279e-14) (-4.639043e-18 9.199964e+00 1.202022e-16))
0.000472342   	((1.800273e+03 8.700121e-14 1.299316e+04) (9.881170e+00 2.687275e-18 1.060786e+00)) ((-5.522878e-13 -4.178417e+03 8.503690e-14) (-2.917524e-18 9.318281e+00 1.229629e-16))
0.000577897   	((1.691693e+03 7.593057e-15 7.528304e+03) (1.002217e+01 2.348217e-18 1.066440e+00)) ((-3.149172e-13 -1.247451e+03 2.044795e-14) (-2.673874e-18 9.456096e+00 1.255752e-16))
0.000704014   	((1.838754e+03 8.182834e-15 6.269295e+03) (1.020412e+01 2.535683e-18 1.080038e+00)) ((-3.002207e-13 -7.726514e+02 1.827453e-14) (-4.213518e-18 9.628277e+00 1.293238e-16))
0.000854764   	((1.889871e+03 5.345320e-14 8.861819e+03) (1.044410e+01 3.391597e-18 1.081634e+00)) ((-4.159107e-13 -2.518491e+03 5.518055e-14) (-6.363130e-18 9.866466e+00 1.357078e-16))
0.00103538    	((4.938017e+03 3.448555e-14 7.056933e+03) (1.081735e+01 3.655571e-18 1.065215e+00)) ((-6.333130e-13 6.444767e+02 4.111611e-14) (-5.941590e-18 1.023590e+01 1.433592e-16))
0.00125089    	((7.655685e+02 -5.796613e-15 5.042587e+03) (1.120349e+01 3.017100e-18 1.087059e+00)) ((-2.014823e-13 -1.264805e+03 3.215925e-15) (-4.229745e-18 1.060629e+01 1.499855e-16))
0.00150772    	((6.192168e+02 -1.721194e-14 4.883405e+03) (1.169127e+01 2.272839e-18 1.115596e+00)) ((-1.979282e-13 -1.716051e+03 -6.598539e-15) (-2.455704e-18 1.108235e+01 1.556993e-16))
0.00181593    	((9.389003e+02 -9.775708e-15 2.114139e+03) (1.229173e+01 1.708405e-18 1.175665e+00)) ((-1.681502e-13 -2.500836e+02 1.139948e-16) (-1.498567e-18 1.164905e+01 1.648719e-16))
0.00217961    	((4.656269e+02 -2.471702e-14 3.931236e+03) (1.297251e+01 2.740884e-18 1.223574e+00)) ((-1.351024e-13 -1.550960e+03 -1.527024e-14) (-3.860237e-18 1.231374e+01 1.772761e-16))
0.00261425    	((5.298176e+02 -1.364053e-14 2.063715e+03) (1.372768e+01 3.259363e-18 1.288940e+00)) ((-1.169946e-13 -4.247766e+02 -3.773092e-15) (-5.352745e-18 1.304622e+01 1.929332e-16))
0.0031256     	((2.803324e+02 -1.626670e-14 3.530334e+03) (1.453555e+01 1.937844e-18 1.336181e+00)) ((-1.346046e-13 -1.521065e+03 -1.144720e-14) (-3.132681e-18 1.384731e+01 2.062724e-16))
0.00372826    	((2.795609e+02 -1.485501e-14 3.174211e+03) (1.537044e+01 1.257679e-18 1.364509e+00)) ((-1.254855e-13 -1.470670e+03 -9.712665e-15) (-2.719331e-18 1.469705e+01 2.181444e-16))
0.00443572    	((2.006377e+02 -1.288818e-14 4.440982e+03) (1.625023e+01 1.117913e-18 1.424751e+00)) ((-1.590030e-13 -2.227167e+03 -9.126215e-15) (-1.585274e-18 1.556923e+01 2.325884e-16))
0.00521394    	((2.058012e+02 -1.419668e-14 2.673477e+03) (1.710436e+01 1.201702e-18 1.457730e+00)) ((-1.068899e-13 -1.102580e+03 -8.023811e-15) (-8.283655e-19 1.642605e+01 2.466920e-16))
0.00608371    	((2.177930e+02 -1.863282e-14 1.760179e+03) (1.792486e+01 1.345947e-18 1.500211e+00)) ((-7.975740e-14 -6.147167e+02 -8.869326e-15) (-1.154872e-18 1.724689e+01 2.596759e-16))
0.00701146    	((1.671044e+02 -1.520367e-14 1.862650e+03) (1.866992e+01 1.424134e-18 1.526427e+00)) ((-8.015566e-14 -6.525903e+02 -8.061850e-15) (-5.999257e-19 1.799700e+01 2.709440e-16))
0.00782324    	((1.640997e+02 -1.851162e-14 1.571586e+03) (1.923607e+01 1.312869e-18 1.547011e+00)) ((-7.302504e-14 -5.594774e+02 -9.230492e-15) (3.768116e-19 1.856710e+01 2.796595e-16))
0.00858429    	((1.514622e+02 -1.562701e-14 1.702880e+03) (1.970307e+01 9.806263e-19 1.559021e+00)) ((-7.498135e-14 -5.967674e+02 -8.341966e-15) (1.290635e-18 1.903944e+01 2.862914e-16))
0.00934534    	((1.461003e+02 -1.543989e-14 1.660249e+03) (2.011131e+01 8.285211e-19 1.569482e+00)) ((-7.322277e-14 -5.768597e+02 -8.315144e-15) (1.402208e-18 1.945351e+01 2.907662e-16))
0.0101064     	((1.475091e+02 -1.751143e-14 1.446767e+03) (2.045183e+01 8.650383e-19 1.591669e+00)) ((-6.900568e-14 -5.188309e+02 -9.136985e-15) (7.227861e-19 1.979378e+01 2.944777e-16))
0.0108674     	((1.241502e+02 -1.585354e-14 1.795131e+03) (2.070930e+01 8.459898e-19 1.592762e+00)) ((-7.542540e-14 -7.139350e+02 -9.151846e-15) (1.302046e-18 2.005420e+01 2.970098e-16))
0.0116285     	((1.074355e+02 -1.596724e-14 1.975715e+03) (2.099602e+01 7.728004e-19 1.595982e+00)) ((-7.921970e-14 -8.588584e+02 -9.766976e-15) (1.553903e-18 2.034134e+01 2.949947e-16))
0.0123895     	((1.291918e+02 -1.553400e-14 1.504539e+03) (2.120578e+01 2.494343e-19 1.596688e+00)) ((-6.694907e-14 -5.845192e+02 -8.937028e-15) (7.349915e-19 2.055728e+01 2.919408e-16))
0.0131506     	((1.298289e+02 -1.587427e-14 1.567257e+03) (2.138292e+01 2.122516e-19 1.579804e+00)) ((-6.934959e-14 -5.714776e+02 -8.826712e-15) (1.006363e-18 2.074589e+01 2.917761e-16))
0.0139116     	((1.304282e+02 -1.595393e-14 1.526747e+03) (2.152824e+01 2.951992e-19 1.551368e+00)) ((-6.834277e-14 -5.503097e+02 -8.820068e-15) (6.938859e-19 2.090557e+01 2.925301e-16))
0.0146727     	((1.281230e+02 -1.591338e-14 1.512911e+03) (2.163097e+01 5.351035e-19 1.525241e+00)) ((-6.809886e-14 -5.470303e+02 -8.833786e-15) (1.294078e-18 2.101761e+01 2.947962e-16))
0.0154337     	((1.286404e+02 -1.522662e-14 1.337455e+03) (2.168790e+01 6.621975e-19 1.508164e+00)) ((-7.026107e-14 -4.854891e+02 -8.363492e-15) (3.899074e-18 2.107584e+01 2.973458e-16))
0.0161948     	((1.151820e+02 -1.609780e-14 1.638588e+03) (2.177125e+01 8.573825e-19 1.464364e+00)) ((-7.035875e-14 -6.546333e+02 -9.373054e-15) (4.797957e-18 2.117714e+01 2.982059e-16))
0.0169558     	((1.238102e+02 -1.606467e-14 1.500321e+03) (2.177464e+01 1.087551e-18 1.420156e+00)) ((-6.694327e-14 -5.547704e+02 -9.001689e-15) (5.582560e-18 2.119394e+01 3.005595e-16))
0.0177169     	((1.230861e+02 -1.611053e-14 1.480825e+03) (2.175114e+01 1.194460e-18 1.368161e+00)) ((-6.634626e-14 -5.460085e+02 -9.014969e-15) (6.267789e-18 2.118328e+01 3.020969e-16))
0.0184779     	((1.168850e+02 -1.616629e-14 1.402550e+03) (2.170624e+01 1.247115e-18 1.326680e+00)) ((-7.098613e-14 -5.454215e+02 -8.972463e-15) (7.627809e-18 2.114539e+01 3.040279e-16))
0.019239      	((1.225557e+02 -1.608384e-14 1.458560e+03) (2.164573e+01 1.438908e-18 1.277493e+00)) ((-6.605299e-14 -5.381384e+02 -9.005053e-15) (8.231982e-18 2.109205e+01 3.057158e-16))
0.02          	((1.095027e+02 -1.622485e-14 1.623512e+03) (2.162326e+01 1.495554e-18 1.214533e+00)) ((-6.959735e-14 -6.623453e+02 -9.492553e-15) (8.222413e-18 2.108888e+01 3.057926e-16))
0.0207407     	((1.196682e+02 -1.615163e-14 1.474567e+03) (2.158722e+01 1.643830e-18 1.152245e+00)) ((-6.632357e-14 -5.548931e+02 -9.094745e-15) (8.227960e-18 2.106944e+01 3.078641e-16))
0.021454      	((1.149966e+02 -1.616132e-14 1.353344e+03) (2.154720e+01 1.819757e-18 1.112713e+00)) ((-6.716893e-14 -5.209221e+02 -9.020047e-15) (7.543777e-18 2.103566e+01 3.117767e-16))
0.0221674     	((1.201236e+02 -1.619610e-14 1.423095e+03) (2.150456e+01 1.945474e-18 1.073412e+00)) ((-6.536912e-14 -5.279541e+02 -9.029323e-15) (7.110522e-18 2.099805e+01 3.149152e-16))
0.0228807     	((1.037713e+02 -1.634224e-14 1.650764e+03) (2.151448e+01 1.923329e-18 1.020877e+00)) ((-7.058713e-14 -6.972364e+02 -9.652741e-15) (6.085372e-18 2.102937e+01 3.157212e-16))
0.023625      	((1.171015e+02 -1.621154e-14 1.464765e+03) (2.149379e+01 1.993061e-18 9.762623e-01)) ((-6.618238e-14 -5.572467e+02 -9.138562e-15) (5.329659e-18 2.102372e+01 3.188066e-16))
0.02428       	((1.118853e+02 -1.627211e-14 1.511642e+03) (2.147573e+01 1.918087e-18 9.314806e-01)) ((-6.742143e-14 -5.983023e+02 -9.315315e-15) (5.525940e-18 2.102165e+01 3.225012e-16))
0.024935      	((1.139922e+02 -1.659805e-14 1.322561e+03) (2.143822e+01 2.016071e-18 9.158849e-01)) ((-6.246631e-14 -5.010576e+02 -9.386144e-15) (4.687059e-18 2.098150e+01 3.268891e-16))
0.02559       	((1.046720e+02 -1.633787e-14 1.600681e+03) (2.144303e+01 2.141150e-18 8.765580e-01)) ((-6.940277e-14 -6.672166e+02 -9.595017e-15) (3.834753e-18 2.100468e+01 3.291077e-16))
0.026245      	((1.115272e+02 -1.624769e-14 1.502952e+03) (2.141411e+01 2.375724e-18 8.432575e-01)) ((-6.701691e-14 -5.938734e+02 -9.319233e-15) (3.238853e-18 2.098843e+01 3.335375e-16))
0.0269        	((1.152888e+02 -1.620742e-14 1.447991e+03) (2.136753e+01 2.495470e-18 8.222466e-01)) ((-6.572974e-14 -5.538789e+02 -9.158875e-15) (3.374966e-18 2.094389e+01 3.393001e-16))
0.027555      	((1.061891e+02 -1.630116e-14 1.557865e+03) (2.136090e+01 2.383882e-18 7.822852e-01)) ((-6.834054e-14 -6.398489e+02 -9.512616e-15) (3.316742e-18 2.095583e+01 3.435073e-16))
0.02821       	((1.064057e+02 -1.643441e-14 1.374080e+03) (2.131774e+01 2.221168e-18 7.696909e-01)) ((-6.574616e-14 -5.442162e+02 -9.407072e-15) (3.830807e-18 2.091361e+01 3.497475e-16))
0.028865      	((1.067084e+02 -1.629347e-14 1.543356e+03) (2.128959e+01 2.248739e-18 7.453172e-01)) ((-6.809039e-14 -6.292549e+02 -9.480702e-15) (3.967534e-18 2.089499e+01 3.552392e-16))
0.02952       	((1.083213e+02 -1.628547e-14 1.514466e+03) (2.124448e+01 2.315678e-18 7.253319e-01)) ((-6.740829e-14 -6.094296e+02 -9.415523e-15) (4.260479e-18 2.085634e+01 3.614821e-16))
0.030175      	((1.068205e+02 -1.629774e-14 1.538885e+03) (2.120542e+01 2.383118e-18 7.039869e-01)) ((-6.796266e-14 -6.256330e+02 -9.478669e-15) (4.633360e-18 2.082512e+01 3.671674e-16))
0.03083       	((1.060015e+02 -1.634526e-14 1.537706e+03) (2.116785e+01 2.536208e-18 6.732174e-01)) ((-6.809822e-14 -6.264602e+02 -9.521271e-15) (5.388757e-18 2.080039e+01 3.727674e-16))
0.031485      	((9.964682e+01 -1.804373e-14 1.411950e+03) (2.112271e+01 2.314484e-18 6.652543e-01)) ((-6.328111e-14 -5.778383e+02 -1.058113e-14) (5.621380e-18 2.075609e+01 3.761803e-16))
0.03214       	((1.043664e+02 -1.650870e-14 1.549142e+03) (2.106879e+01 2.213011e-18 6.495079e-01)) ((-6.836291e-14 -6.381555e+02 -9.642396e-15) (6.395320e-18 2.070697e+01 3.801409e-16))
0.032795      	((1.047320e+02 -1.644683e-14 1.549852e+03) (2.100896e+01 2.300759e-18 6.342132e-01)) ((-6.816504e-14 -6.357238e+02 -9.617515e-15) (6.999381e-18 2.065115e+01 3.833136e-16))
0.03345       	((1.034150e+02 -1.642597e-14 1.560917e+03) (2.094488e+01 2.564329e-18 6.189650e-01)) ((-6.834400e-14 -6.441834e+02 -9.649440e-15) (7.451589e-18 2.059077e+01 3.856379e-16))
0.034105      	((1.023975e+02 -1.653494e-14 1.561866e+03) (2.088878e+01 1.770495e-18 5.913502e-01)) ((-6.839581e-14 -6.476181e+02 -9.725042e-15) (8.026406e-18 2.054644e+01 3.857944e-16))
0.03476       	((9.505683e+01 -2.040224e-14 1.433404e+03) (2.082075e+01 1.380465e-18 5.856450e-01)) ((-6.844442e-14 -5.961126e+02 -1.148327e-14) (1.053663e-17 2.047867e+01 3.882418e-16))
0.035415      	((1.005301e+02 -1.672853e-14 1.580343e+03) (2.074563e+01 1.275793e-18 5.677736e-01)) ((-6.909777e-14 -6.623731e+02 -9.867418e-15) (1.117357e-17 2.041068e+01 3.889426e-16))
0.03607       	((1.007818e+02 -1.655925e-14 1.588928e+03) (2.067566e+01 1.148967e-18 5.487551e-01)) ((-6.927546e-14 -6.644321e+02 -9.809527e-15) (1.180845e-17 2.034908e+01 3.879480e-16))
0.036725      	((9.962960e+01 -1.670622e-14 1.591079e+03) (2.060221e+01 1.002057e-18 5.288601e-01)) ((-6.953567e-14 -6.684260e+02 -9.914049e-15) (1.246870e-17 2.028503e+01 3.871133e-16))
0.03738       	((9.776847e+01 -1.717282e-14 1.580526e+03) (2.052267e+01 1.903887e-18 4.979302e-01)) ((-6.867312e-14 -6.676252e+02 -1.024037e-14) (1.383830e-17 2.022169e+01 3.902410e-16))
0.038035      	((9.008882e+01 -2.013208e-14 1.468802e+03) (2.042162e+01 8.611945e-19 4.912994e-01)) ((-6.061956e-14 -6.216880e+02 -1.226020e-14) (1.385387e-17 2.012216e+01 3.948827e-16))
0.03869       	((9.743926e+01 -1.693592e-14 1.608937e+03) (2.030385e+01 5.911217e-19 4.753095e-01)) ((-6.922138e-14 -6.824743e+02 -1.012681e-14) (1.473116e-17 2.001060e+01 4.001486e-16))
0.039345      	((9.723454e+01 -1.680343e-14 1.623824e+03) (2.018174e+01 3.465489e-19 4.571668e-01)) ((-6.947895e-14 -6.902882e+02 -1.006047e-14) (1.530942e-17 1.989709e+01 4.066059e-16))
0.04          	((9.632705e+01 -1.701206e-14 1.618701e+03) (2.006517e+01 1.749948e-19 4.365686e-01)) ((-6.910551e-14 -6.901109e+02 -1.019884e-14) (1.576539e-17 1.979172e+01 4.126831e-16))
0.0406897     	((8.533273e+01 -2.058744e-14 1.446360e+03) (1.995644e+01 -4.702024e-20 4.172587e-01)) ((-5.795439e-14 -6.128061e+02 -1.276587e-14) (1.599004e-17 1.969412e+01 4.183674e-16))
0.0413793     	((9.562523e+01 -1.714437e-14 1.619438e+03) (1.985337e+01 6.440717e-21 3.957138e-01)) ((-6.865992e-14 -6.908324e+02 -1.033004e-14) (1.575839e-17 1.960358e+01 4.207769e-16))
0.042069      	((9.544684e+01 -1.705886e-14 1.631115e+03) (1.974751e+01 -1.414827e-20 3.761730e-01)) ((-6.906426e-14 -6.966447e+02 -1.029455e-14) (1.532633e-17 1.950807e+01 4.208875e-16))
0.0427586     	((9.526957e+01 -1.697496e-14 1.640938e+03) (1.962902e+01 -3.964847e-19 3.584834e-01)) ((-6.943204e-14 -7.025746e+02 -1.025407e-14) (1.494525e-17 1.939843e+01 4.180197e-16))
0.0434483     	((9.330836e+01 -1.746872e-14 1.622495e+03) (1.949992e+01 -8.388507e-19 3.315089e-01)) ((-6.800710e-14 -6.964002e+02 -1.062794e-14) (1.547231e-17 1.928440e+01 4.124289e-16))
0.0441379     	((8.183507e+01 -2.081921e-14 1.478993e+03) (1.935911e+01 -7.004970e-19 3.233089e-01)) ((-5.467252e-14 -6.323160e+02 -1.341519e-14) (1.266405e-17 1.914710e+01 4.023072e-16))
0.0448276     	((9.369233e+01 -1.705753e-14 1.661121e+03) (1.922261e+01 -4.747278e-19 3.016594e-01)) ((-6.984874e-14 -7.167512e+02 -1.035952e-14) (1.128659e-17 1.902332e+01 3.933490e-16))
0.0455172     	((9.291826e+01 -1.716675e-14 1.665500e+03) (1.910431e+01 6.114420e-21 2.742731e-01)) ((-6.982408e-14 -7.198853e+02 -1.045109e-14) (9.889500e-18 1.892277e+01 3.863062e-16))
0.0462069     	((9.059913e+01 -1.776824e-14 1.645632e+03) (1.899626e+01 6.199589e-19 2.473640e-01)) ((-6.774919e-14 -7.125226e+02 -1.094232e-14) (7.908725e-18 1.883312e+01 3.808261e-16))
0.0468966     	((7.621688e+01 -2.291257e-14 1.473091e+03) (1.889155e+01 -1.631958e-19 2.267600e-01)) ((-5.943650e-14 -6.321496e+02 -1.429669e-14) (7.365770e-18 1.874285e+01 3.748208e-16))
0.0475862     	((8.856370e+01 -1.785799e-14 1.661749e+03) (1.877024e+01 -2.158824e-19 2.076391e-01)) ((-6.897849e-14 -7.233742e+02 -1.094833e-14) (6.727042e-18 1.863292e+01 3.767378e-16))
0.0482759     	((8.408774e+01 -1.753575e-14 1.665593e+03) (1.865024e+01 -4.230462e-19 2.263069e-01)) ((-7.115787e-14 -7.184477e+02 -1.059700e-14) (8.833659e-18 1.848709e+01 3.822093e-16))
0.0489655     	((8.936347e+01 -1.775270e-14 1.646756e+03) (1.855225e+01 -5.936079e-19 2.214332e-01)) ((-6.863743e-14 -7.074143e+02 -1.082997e-14) (9.646472e-18 1.838677e+01 3.857305e-16))
0.0496552     	((7.177997e+01 -2.080153e-14 1.474639e+03) (1.847590e+01 -6.838563e-19 2.074550e-01)) ((-6.652992e-14 -6.258696e+02 -1.253868e-14) (9.841273e-18 1.831645e+01 3.878496e-16))
0.0503448     	((8.412303e+01 -1.851088e-14 1.613926e+03) (1.840480e+01 -7.546324e-19 1.999928e-01)) ((-6.849247e-14 -6.941803e+02 -1.123718e-14) (1.041406e-17 1.824765e+01 3.899723e-16))
0.0510345     	((8.728638e+01 -1.798380e-14 1.650786e+03) (1.833237e+01 -5.365016e-19 1.887808e-01)) ((-6.877674e-14 -7.127328e+02 -1.096974e-14) (1.059386e-17 1.818017e+01 3.924108e-16))
0.0517241     	((8.690903e+01 -1.794276e-14 1.659657e+03) (1.825012e+01 -2.359247e-19 1.778316e-01)) ((-6.908272e-14 -7.175863e+02 -1.097431e-14) (1.087932e-17 1.810246e+01 3.956382e-16))
0.0524138     	((7.723593e+01 -1.782994e-14 1.591471e+03) (1.815556e+01 -5.302646e-19 1.721214e-01)) ((-6.910956e-14 -6.843213e+02 -1.091274e-14) (1.254343e-17 1.800739e+01 3.995414e-16))
0.0531034     	((7.027423e+01 -1.754613e-14 1.520295e+03) (1.806511e+01 1.118363e-18 1.779544e-01)) ((-6.901336e-14 -6.465518e+02 -1.070637e-14) (1.296024e-17 1.790648e+01 4.034893e-16))
0.0537931     	((8.479885e+01 -1.799654e-14 1.672668e+03) (1.798163e+01 1.736457e-18 1.736356e-01)) ((-7.014037e-14 -7.246844e+02 -1.105054e-14) (1.321715e-17 1.782182e+01 4.047964e-16))
0.0544828     	((8.191607e+01 -1.791636e-14 1.685876e+03) (1.791134e+01 1.907393e-18 1.641731e-01)) ((-7.070139e-14 -7.363932e+02 -1.103499e-14) (1.326538e-17 1.775597e+01 4.052249e-16))
0.0551724     	((6.434541e+01 -1.798087e-14 1.758100e+03) (1.784154e+01 1.165686e-18 1.475478e-01)) ((-7.383673e-14 -7.982809e+02 -1.128834e-14) (1.451092e-17 1.769659e+01 4.056277e-16))
0.0558621     	((4.470700e+01 -1.564591e-14 1.565768e+03) (1.777727e+01 2.029737e-18 1.412979e-01)) ((-7.003810e-14 -6.941080e+02 -1.005448e-14) (1.300670e-17 1.763604e+01 4.046928e-16))
0.0565517     	((7.192477e+01 -1.798449e-14 1.757626e+03) (1.771555e+01 2.122680e-18 1.258491e-01)) ((-7.373279e-14 -7.834738e+02 -1.114370e-14) (1.296599e-17 1.758487e+01 4.050513e-16))
0.0572414     	((7.321182e+01 -1.782750e-14 1.747768e+03) (1.766010e+01 1.904398e-18 1.055396e-01)) ((-7.341124e-14 -7.741400e+02 -1.103377e-14) (1.338517e-17 1.754417e+01 4.055545e-16))
0.057931      	((6.784862e+01 -1.747887e-14 1.691372e+03) (1.760470e+01 1.704667e-18 8.130827e-02)) ((-7.243927e-14 -7.437479e+02 -1.085833e-14) (1.313924e-17 1.750718e+01 4.050617e-16))
0.0586207     	((4.389470e+01 -1.826551e-14 1.458176e+03) (1.754705e+01 2.065220e-18 6.979330e-02)) ((-7.411706e-14 -6.157681e+02 -1.097533e-14) (1.311843e-17 1.745838e+01 4.028275e-16))
0.0593103     	((6.954521e+01 -1.770900e-14 1.731008e+03) (1.747116e+01 1.461784e-18 4.842374e-02)) ((-7.336043e-14 -7.652863e+02 -1.099479e-14) (1.441177e-17 1.739851e+01 4.036544e-16))
0.0596552     	((6.562097e+01 -1.782484e-14 1.731729e+03) (1.742765e+01 1.250720e-18 4.181612e-02)) ((-7.404737e-14 -7.692596e+02 -1.103560e-14) (1.486487e-17 1.735927e+01 4.037116e-16))
0.06          	((6.136332e+01 -1.783243e-14 1.680366e+03) (1.738243e+01 1.178417e-18 3.430187e-02)) ((-7.404975e-14 -7.402243e+02 -1.097591e-14) (1.541984e-17 1.731939e+01 4.034943e-16))
0.0604        	((5.462654e+00 -1.957836e-14 1.141596e+03) (1.733979e+01 5.764853e-19 2.220563e-02)) ((-9.178008e-14 -4.354261e+02 -9.718002e-15) (1.767644e-17 1.728601e+01 4.081411e-16))
0.0608558     	((5.877669e+01 -1.784390e-14 1.687832e+03) (1.728143e+01 4.774344e-19 9.581301e-03)) ((-7.603213e-14 -7.430806e+02 -1.085521e-14) (1.861616e-17 1.723736e+01 4.095206e-16))
0.0613732     	((6.163373e+01 -1.770538e-14 1.742109e+03) (1.721316e+01 5.081999e-19 -4.148733e-03)) ((-7.564233e-14 -7.723652e+02 -1.090372e-14) (1.940323e-17 1.717955e+01 4.103405e-16))
0.0619377     	((6.020901e+01 -1.769998e-14 1.733539e+03) (1.714001e+01 6.713162e-19 -1.753682e-02)) ((-7.609394e-14 -7.659202e+02 -1.085384e-14) (2.009762e-17 1.711634e+01 4.109117e-16))
0.0625397     	((6.047295e+01 -1.763150e-14 1.735374e+03) (1.706680e+01 8.387012e-19 -2.905572e-02)) ((-7.630146e-14 -7.654311e+02 -1.080023e-14) (2.088503e-17 1.705122e+01 4.112414e-16))
0.0631418     	((1.179674e+01 -1.772327e-14 1.301847e+03) (1.701623e+01 1.297054e-18 -3.065191e-02)) ((-6.347225e-14 -5.142677e+02 -1.195839e-14) (2.189826e-17 1.700085e+01 4.134523e-16))
0.0637439     	((5.183357e+01 -1.761663e-14 1.687486e+03) (1.697258e+01 1.412311e-18 -3.285119e-02)) ((-7.610871e-14 -7.387711e+02 -1.085992e-14) (2.319946e-17 1.695749e+01 4.120266e-16))
0.064346      	((5.400468e+01 -1.763407e-14 1.706835e+03) (1.693590e+01 1.343855e-18 -3.496073e-02)) ((-7.704165e-14 -7.490201e+02 -1.079780e-14) (2.433452e-17 1.692129e+01 4.116408e-16))
0.0649481     	((5.180517e+01 -1.794513e-14 1.706890e+03) (1.690442e+01 1.319031e-18 -3.894383e-02)) ((-7.836506e-14 -7.469490e+02 -1.092784e-14) (2.513252e-17 1.689194e+01 4.125369e-16))
0.0655501     	((1.173597e+01 -2.322490e-14 1.383475e+03) (1.688402e+01 1.107295e-18 -4.341030e-02)) ((-6.938658e-14 -5.544091e+02 -1.536005e-14) (2.587480e-17 1.687435e+01 4.139047e-16))
0.0661522     	((2.562160e+01 -2.162107e-14 1.486799e+03) (1.687118e+01 1.217587e-18 -4.401778e-02)) ((-7.270115e-14 -6.123197e+02 -1.391548e-14) (2.636078e-17 1.686124e+01 4.170968e-16))
0.0667543     	((4.212532e+01 -1.962513e-14 1.663417e+03) (1.685488e+01 1.206474e-18 -4.666409e-02)) ((-8.191407e-14 -7.110539e+02 -1.175406e-14) (2.683905e-17 1.684613e+01 4.217244e-16))
0.0673564     	((4.320145e+01 -1.953458e-14 1.682502e+03) (1.684133e+01 9.222612e-19 -4.453880e-02)) ((-8.216295e-14 -7.222346e+02 -1.168148e-14) (2.793543e-17 1.682950e+01 4.269473e-16))
0.0679584     	((-1.359450e+02 -4.596102e-14 1.429414e+03) (1.679465e+01 -4.654417e-20 -2.906602e-02)) ((-9.845461e-14 -5.949330e+02 -3.163648e-14) (2.920920e-17 1.676927e+01 4.319136e-16))
0.0685605     	((-7.563426e+00 -2.689710e-14 1.634002e+03) (1.675976e+01 6.337331e-20 -7.055642e-03)) ((-9.210698e-14 -6.945190e+02 -1.680179e-14) (2.969049e-17 1.671525e+01 4.366202e-16))
0.0691626     	((1.206670e+01 -2.402355e-14 1.652265e+03) (1.670760e+01 3.867001e-19 -1.903948e-04)) ((-9.138955e-14 -7.015902e+02 -1.450917e-14) (2.971124e-17 1.665715e+01 4.395125e-16))
0.0697647     	((6.869823e+00 -2.518202e-14 1.608685e+03) (1.662106e+01 1.065468e-18 3.631037e-02)) ((-9.097167e-14 -6.735526e+02 -1.535782e-14) (2.839044e-17 1.653884e+01 4.403061e-16))
0.0703668     	((-1.000833e+02 -5.539297e-14 8.636492e+02) (1.651362e+01 1.905889e-18 1.097714e-01)) ((-5.459489e-14 -2.003015e+02 -4.117753e-14) (2.368632e-17 1.636697e+01 4.393985e-16))
0.0709688     	((-7.851196e+00 -2.874810e-14 1.488503e+03) (1.633648e+01 2.822077e-18 1.657098e-01)) ((-8.694375e-14 -5.901722e+02 -1.838474e-14) (1.910686e-17 1.613903e+01 4.300225e-16))
0.0715709     	((-2.683769e+02 -5.051852e-14 1.415353e+03) (1.610117e+01 5.961550e-18 1.780583e-01)) ((-1.043558e-13 -5.247667e+02 -3.825280e-14) (1.747515e-17 1.589327e+01 4.193630e-16))
0.072173      	((-8.806059e+02 -1.372295e-13 -1.525888e+03) (1.589883e+01 9.491204e-19 1.579832e-01)) ((-1.275212e-13 1.446226e+03 -9.910270e-14) (2.359365e-17 1.571281e+01 4.178554e-16))
0.0727751     	((-3.429089e+03 -5.315616e-13 -1.116211e+04) (1.544701e+01 4.425717e-19 1.409022e-01)) ((-1.063441e-13 7.750830e+03 -4.090884e-13) (1.390737e-17 1.529831e+01 3.404787e-16))
0.0733771     	((1.479739e+02 -1.490896e-14 1.414649e+03) (1.539963e+01 -2.698023e-19 1.486678e-01)) ((-7.269183e-14 -4.178703e+02 -7.248217e-15) (1.331321e-17 1.526036e+01 3.357354e-16))
0.0739792     	((1.414300e+02 -1.502193e-14 1.453550e+03) (1.536148e+01 -4.710783e-19 1.604702e-01)) ((-7.365370e-14 -4.558835e+02 -7.465253e-15) (1.265113e-17 1.522534e+01 3.322247e-16))
0.0746482     	((1.355309e+02 -1.517715e-14 1.444663e+03) (1.532227e+01 -7.122076e-19 1.638254e-01)) ((-7.392482e-14 -4.640270e+02 -7.647264e-15) (1.222839e-17 1.519344e+01 3.293608e-16))
0.0753172     	((1.295191e+02 -1.535516e-14 1.460157e+03) (1.529716e+01 -7.366543e-19 1.634009e-01)) ((-7.487652e-14 -4.905041e+02 -7.909627e-15) (1.420791e-17 1.516915e+01 3.274412e-16))
0.0759861     	((1.187102e+02 -1.559995e-14 1.505242e+03) (1.527630e+01 -1.039049e-18 1.525490e-01)) ((-7.474313e-14 -5.454974e+02 -8.424289e-15) (1.571541e-17 1.515376e+01 3.250503e-16))
0.0765596     	((1.126477e+02 -1.649385e-14 1.467722e+03) (1.526567e+01 -1.492927e-18 1.371056e-01)) ((-7.283384e-14 -5.355015e+02 -9.011455e-15) (1.713046e-17 1.514936e+01 3.221300e-16))
0.077133      	((8.887118e+01 -1.875780e-14 1.759503e+03) (1.524819e+01 -1.705561e-18 1.181057e-01)) ((-8.171230e-14 -7.551197e+02 -1.066442e-14) (2.003887e-17 1.513875e+01 3.217621e-16))
0.0777064     	((2.809992e+01 -1.931655e-14 2.600083e+03) (1.521472e+01 -1.770640e-18 1.007791e-01)) ((-9.434854e-14 -1.353719e+03 -1.323143e-14) (2.150460e-17 1.511048e+01 3.229646e-16))
0.0782798     	((5.055386e+01 -2.230983e-14 2.020879e+03) (1.518196e+01 -1.303422e-18 1.039277e-01)) ((-7.807460e-14 -9.430022e+02 -1.478795e-14) (2.115271e-17 1.506428e+01 3.208065e-16))
0.0788532     	((5.879252e+01 -2.409376e-14 1.720538e+03) (1.516213e+01 -1.006010e-18 9.493640e-02)) ((-6.726483e-14 -7.329171e+02 -1.591248e-14) (1.914553e-17 1.504067e+01 3.137286e-16))
0.0794266     	((3.694992e+01 -2.458470e-14 2.041942e+03) (1.513147e+01 -1.028034e-18 7.819009e-02)) ((-7.736877e-14 -9.758137e+02 -1.625550e-14) (1.889843e-17 1.501316e+01 3.084263e-16))
0.08          	((2.836732e+01 -2.406256e-14 1.865218e+03) (1.510070e+01 -1.270977e-18 5.495272e-02)) ((-8.195188e-14 -8.544003e+02 -1.519294e-14) (2.121316e-17 1.499158e+01 3.079327e-16))
0.080625      	((2.591129e+01 -2.565330e-14 1.533766e+03) (1.511135e+01 -1.481764e-18 1.141679e-02)) ((-6.767811e-14 -6.221899e+02 -1.763146e-14) (2.154703e-17 1.502897e+01 3.048674e-16))
0.0812931     	((1.872936e+01 -2.067011e-14 1.217545e+03) (1.514213e+01 8.371597e-20 -2.967102e-02)) ((-6.957319e-14 -4.381670e+02 -1.286831e-14) (1.962236e-17 1.508787e+01 3.003163e-16))
0.0819612     	((-1.707390e+02 -6.551878e-14 -2.402207e+02) (1.516035e+01 -2.283738e-19 -5.018678e-02)) ((-7.152981e-15 4.863507e+02 -5.131679e-14) (2.117043e-17 1.512020e+01 2.999339e-16))
0.0825625     	((-1.692359e+02 -8.276084e-14 -3.182737e+01) (1.513084e+01 8.600549e-20 -1.987683e-03)) ((1.081351e-14 3.812417e+02 -6.640226e-14) (2.053379e-17 1.504641e+01 2.973731e-16))
0.0831638     	((1.550668e+01 -2.969427e-14 1.415728e+03) (1.509266e+01 2.864981e-20 1.251786e-03)) ((-6.403715e-14 -5.426536e+02 -2.049445e-14) (2.087634e-17 1.500180e+01 2.968192e-16))
0.0837651     	((2.891480e+01 -2.721468e-14 1.438193e+03) (1.505865e+01 3.733935e-23 1.108253e-04)) ((-6.577782e-14 -5.540874e+02 -1.824805e-14) (2.120363e-17 1.496532e+01 2.965164e-16))
0.0843664     	((2.421458e+01 -2.724521e-14 1.467676e+03) (1.502364e+01 -2.697846e-20 -2.651884e-03)) ((-6.674268e-14 -5.765913e+02 -1.829120e-14) (2.163379e-17 1.492934e+01 2.965862e-16))
0.0849677     	((2.705302e+01 -2.702809e-14 1.445625e+03) (1.499233e+01 -6.574553e-20 -5.518602e-03)) ((-6.620417e-14 -5.601966e+02 -1.802273e-14) (2.205032e-17 1.489804e+01 2.967025e-16))
0.085569      	((2.499789e+01 -2.752874e-14 1.424123e+03) (1.496301e+01 -2.220129e-19 -9.319267e-03)) ((-6.542692e-14 -5.464529e+02 -1.840819e-14) (2.268278e-17 1.486880e+01 2.966165e-16))
0.0861703     	((2.409796e+01 -2.717387e-14 1.445129e+03) (1.493451e+01 -3.560122e-19 -1.268291e-02)) ((-6.676769e-14 -5.613898e+02 -1.804611e-14) (2.330829e-17 1.484058e+01 2.967531e-16))
0.0867716     	((2.661287e+01 -2.702876e-14 1.423430e+03) (1.491044e+01 -1.348244e-19 -1.774835e-02)) ((-6.662090e-14 -5.456418e+02 -1.781572e-14) (2.348100e-17 1.481798e+01 2.970534e-16))
0.0873728     	((-1.031782e+02 -4.341333e-14 1.499114e+03) (1.482540e+01 -3.456370e-19 -2.586965e-02)) ((-9.915205e-14 -6.018304e+02 -2.898264e-14) (2.277520e-17 1.473862e+01 2.940934e-16))
0.0879741     	((-1.032492e+02 -4.412243e-14 1.214208e+03) (1.475731e+01 -4.093132e-19 -1.702393e-02)) ((-9.833252e-14 -4.033341e+02 -2.836522e-14) (2.193487e-17 1.466109e+01 2.910908e-16))
0.0885754     	((-1.007731e+02 -4.442406e-14 9.576157e+02) (1.473376e+01 -1.112512e-19 1.692260e-02)) ((-9.138491e-14 -2.260927e+02 -2.823123e-14) (1.844018e-17 1.460527e+01 2.905694e-16))
0.0891767     	((-6.223685e+01 -3.997094e-14 1.187941e+03) (1.470559e+01 -6.154588e-19 4.479309e-02)) ((-8.460230e-14 -3.843455e+02 -2.601249e-14) (1.623234e-17 1.455082e+01 2.888301e-16))
0.089778      	((-5.269541e+01 -3.895493e-14 1.190902e+03) (1.468018e+01 -8.425880e-19 6.792966e-02)) ((-8.218067e-14 -3.862200e+02 -2.538268e-14) (1.388382e-17 1.450355e+01 2.872410e-16))
0.0903793     	((-9.767296e+02 -1.493356e-13 -1.359646e+03) (1.457527e+01 2.853101e-19 7.470461e-02)) ((-1.208824e-13 1.357151e+03 -1.115509e-13) (1.281146e-17 1.439784e+01 2.769895e-16))
0.0909806     	((7.491511e+01 -2.432141e-14 1.331077e+03) (1.460188e+01 3.705198e-19 6.654570e-02)) ((-6.061700e-14 -4.574424e+02 -1.521581e-14) (1.285903e-17 1.443483e+01 2.764527e-16))
0.0915819     	((6.484059e+01 -2.508979e-14 1.343669e+03) (1.462807e+01 4.702055e-19 5.798059e-02)) ((-6.040611e-14 -4.781798e+02 -1.602502e-14) (1.322961e-17 1.447069e+01 2.760638e-16))
0.0921832     	((3.498970e+01 -2.676988e-14 1.431465e+03) (1.463179e+01 4.806987e-19 4.380108e-02)) ((-6.469800e-14 -5.494819e+02 -1.759846e-14) (1.406051e-17 1.448822e+01 2.774551e-16))