# Forces      
# CofR        : (0.000000e+00 0.000000e+00 -1.000000e+00)
# Time        forces(pressure viscous)	moments(pressure viscous)
0             	((5.684342e-14 -3.955919e-14 9.094947e-13) (9.270720e+00 2.533122e-18 6.915114e-01)) ((-5.701534e-14 0.000000e+00 -2.905862e-14) (-1.146819e-17 8.929644e+00 1.126504e-16))
1.19976e-05   	((2.025838e+05 8.027967e-13 4.905083e+05) (9.342358e+00 2.685816e-18 6.483738e-01)) ((-2.216821e-11 8.367426e+04 2.966518e-12) (-4.220843e-18 9.013763e+00 1.135056e-16))
2.63878e-05   	((3.187060e+04 8.992962e-14 7.985927e+04) (9.357116e+00 2.790557e-18 6.490568e-01)) ((-3.418561e-12 1.250991e+04 4.551465e-13) (-2.253564e-18 9.021259e+00 1.137356e-16))
4.36511e-05   	((1.829095e+04 4.138855e-14 4.511914e+04) (9.383339e+00 2.747456e-18 6.576699e-01)) ((-1.954014e-12 7.439207e+03 2.553381e-13) (-1.333569e-18 9.037234e+00 1.141041e-16))
6.43527e-05   	((1.267221e+04 2.918298e-14 3.033437e+04) (9.419428e+00 2.688513e-18 6.591403e-01)) ((-1.390809e-12 5.181124e+03 1.687357e-13) (-5.482330e-19 9.069775e+00 1.146191e-16))
8.91792e-05   	((9.016889e+03 1.720145e-14 2.141783e+04) (9.460473e+00 2.704937e-18 6.597945e-01)) ((-1.006120e-12 3.680037e+03 1.156537e-13) (-2.584351e-19 9.108533e+00 1.152886e-16))
0.000118941   	((6.942681e+03 1.234838e-14 1.575443e+04) (9.507932e+00 2.739047e-18 6.611095e-01)) ((-7.862426e-13 2.858345e+03 8.344992e-14) (-2.507227e-20 9.153511e+00 1.160763e-16))
0.000154634   	((5.201296e+03 3.499851e-14 1.935119e+04) (9.563902e+00 2.913404e-18 6.610009e-01)) ((-8.445962e-13 -1.120335e+03 7.043421e-14) (3.499729e-19 9.208500e+00 1.165000e-16))
0.000197405   	((4.530514e+03 -1.369584e-14 7.411836e+03) (9.628371e+00 2.917481e-18 6.636995e-01)) ((-4.557444e-13 2.337288e+03 4.232272e-14) (2.928404e-19 9.271472e+00 1.173234e-16))
0.000248707   	((3.558109e+03 -3.166078e-15 6.814890e+03) (9.704839e+00 2.896851e-18 6.657997e-01)) ((-4.005744e-13 1.641428e+03 3.303860e-14) (4.460071e-19 9.346128e+00 1.184355e-16))
0.000310237   	((2.907966e+03 3.147161e-14 1.051949e+04) (9.798041e+00 2.918088e-18 6.671972e-01)) ((-4.396545e-13 -8.990297e+02 4.767701e-14) (2.337690e-19 9.437629e+00 1.191337e-16))
0.000383982   	((2.540851e+03 -3.736913e-15 4.615451e+03) (9.909176e+00 2.850150e-18 6.702234e-01)) ((-2.956076e-13 1.135272e+03 2.018924e-14) (3.026050e-19 9.545714e+00 1.208093e-16))
0.000472342   	((2.446241e+03 -4.871430e-15 2.850135e+03) (1.004586e+01 2.813763e-18 6.768439e-01)) ((-2.935232e-13 1.303957e+03 1.752874e-14) (9.759333e-19 9.678015e+00 1.230283e-16))
0.000577897   	((2.241968e+03 2.583527e-14 5.426873e+03) (1.021740e+01 2.885391e-18 6.796902e-01)) ((-3.027951e-13 2.345535e+01 3.499997e-14) (5.814310e-19 9.845760e+00 1.261931e-16))
0.000704014   	((3.049341e+03 1.396714e-15 2.252216e+03) (1.044312e+01 2.831368e-18 6.766538e-01)) ((-3.262687e-13 1.898767e+03 1.916233e-14) (9.594278e-19 1.006810e+01 1.302125e-16))
0.000854764   	((4.072744e+03 2.488926e-14 1.892960e+03) (1.074939e+01 2.806422e-18 6.684131e-01)) ((-4.491790e-13 2.160446e+03 3.699777e-14) (1.070539e-18 1.037095e+01 1.378774e-16))
0.00103538    	((1.038169e+03 -7.413990e-15 3.292898e+03) (1.108716e+01 2.819816e-18 6.740793e-01)) ((-1.835513e-13 -1.841417e+02 2.792453e-15) (1.857713e-18 1.070334e+01 1.439634e-16))
0.00125089    	((1.078941e+03 -1.054238e-14 1.391892e+03) (1.152094e+01 2.835148e-18 6.924884e-01)) ((-1.415063e-13 3.662378e+02 9.681387e-16) (1.579063e-18 1.112702e+01 1.505749e-16))
0.00150772    	((8.482664e+02 -2.740880e-14 2.039419e+03) (1.206314e+01 3.292663e-18 7.142748e-01)) ((-1.298415e-13 -1.359149e+02 -9.505089e-15) (1.888366e-18 1.165900e+01 1.590758e-16))
0.00181593    	((6.503845e+02 -1.933996e-14 1.882584e+03) (1.270681e+01 3.124976e-18 7.415148e-01)) ((-1.045724e-13 -8.299938e+01 -6.554935e-15) (2.164635e-18 1.229240e+01 1.701549e-16))
0.00217961    	((6.431324e+02 -2.993609e-14 9.351137e+02) (1.343159e+01 3.032497e-18 7.813974e-01)) ((-7.499910e-14 1.912053e+02 -1.020580e-14) (1.347221e-18 1.300295e+01 1.830993e-16))
0.00261425    	((4.617053e+02 -1.822091e-14 1.878360e+03) (1.424484e+01 3.193833e-18 8.121324e-01)) ((-9.987419e-14 -2.968692e+02 -8.809534e-15) (2.402404e-18 1.380629e+01 1.974689e-16))
0.0031256     	((4.552792e+02 -2.452295e-14 1.171207e+03) (1.513080e+01 2.201408e-18 8.528994e-01)) ((-8.239311e-14 -9.513426e+01 -1.062094e-14) (4.630890e-18 1.467929e+01 2.111782e-16))
0.00372826    	((3.615283e+02 -1.693391e-14 1.137812e+03) (1.608359e+01 1.880850e-18 8.912221e-01)) ((-7.270470e-14 -4.041485e+01 -7.876090e-15) (5.077489e-18 1.561896e+01 2.264759e-16))
0.00443572    	((3.349299e+02 -2.060280e-14 9.301436e+02) (1.709380e+01 1.630899e-18 9.329852e-01)) ((-6.647504e-14 -6.195930e+01 -9.923072e-15) (4.524516e-18 1.661528e+01 2.428992e-16))
0.0052549     	((2.648769e+02 -1.772295e-14 1.235414e+03) (1.812638e+01 1.788061e-18 9.706338e-01)) ((-6.868089e-14 -2.292775e+02 -9.827959e-15) (3.758489e-18 1.763562e+01 2.574708e-16))
0.0062379     	((2.462416e+02 -1.628838e-14 1.266642e+03) (1.919819e+01 1.815808e-18 1.016965e+00)) ((-6.905721e-14 -2.848454e+02 -9.703047e-15) (2.384192e-18 1.869013e+01 2.664182e-16))
0.00738474    	((2.352032e+02 -1.635960e-14 1.345002e+03) (2.028574e+01 1.546870e-18 1.067059e+00)) ((-6.898096e-14 -3.586654e+02 -8.390061e-15) (-6.740419e-19 1.974996e+01 2.807548e-16))
0.00864627    	((2.015059e+02 -1.435841e-14 7.870472e+02) (2.127436e+01 2.354626e-18 1.109667e+00)) ((-5.869334e-14 -1.186637e+02 -6.995132e-15) (-1.453260e-18 2.071641e+01 2.984639e-16))
0.0100655     	((1.418284e+02 -1.261976e-14 9.553188e+02) (2.216732e+01 2.733190e-19 1.153993e+00)) ((-6.003098e-14 -2.555980e+02 -6.309343e-15) (2.458017e-18 2.158250e+01 3.150277e-16))
0.0114847     	((1.588192e+02 -1.347998e-14 1.004475e+03) (2.289908e+01 1.781540e-18 1.168858e+00)) ((-5.960899e-14 -2.582909e+02 -6.667604e-15) (2.629559e-18 2.230911e+01 3.309641e-16))
0.0123362     	((1.073127e+02 -1.561487e-14 9.719111e+02) (2.328437e+01 1.059368e-18 1.178629e+00)) ((-6.812093e-14 -3.802611e+02 -1.033067e-14) (6.364940e-18 2.269191e+01 3.351333e-16))
0.0131878     	((9.710581e+01 -1.812687e-14 1.962384e+03) (2.363698e+01 3.798082e-18 1.183956e+00)) ((-7.232629e-14 -9.275158e+02 -1.236651e-14) (3.748217e-19 2.304081e+01 3.441035e-16))
0.0140393     	((2.677036e+01 -1.915890e-14 2.502380e+03) (2.386622e+01 2.289204e-18 1.123378e+00)) ((-9.249611e-14 -1.494575e+03 -1.652430e-14) (4.891493e-18 2.333444e+01 3.456304e-16))
0.0148908     	((1.930770e+02 -1.724698e-14 1.317574e+03) (2.404131e+01 2.041729e-18 1.094291e+00)) ((-7.232632e-14 -6.050299e+02 -1.139766e-14) (5.359012e-18 2.355101e+01 3.455734e-16))
0.0157424     	((1.039911e+02 -1.637440e-14 1.246797e+03) (2.408707e+01 1.617172e-18 1.072767e+00)) ((-6.048003e-14 -4.980673e+02 -1.043287e-14) (6.602231e-18 2.362354e+01 3.463818e-16))
0.016452      	((1.081445e+02 -1.643067e-14 1.223212e+03) (2.409574e+01 1.317964e-18 1.037053e+00)) ((-6.005267e-14 -4.821768e+02 -1.038403e-14) (7.224211e-18 2.365520e+01 3.472777e-16))
0.0171616     	((1.060546e+02 -1.650847e-14 1.163722e+03) (2.409117e+01 1.144769e-18 1.005041e+00)) ((-5.934209e-14 -4.593535e+02 -1.040406e-14) (7.674441e-18 2.366790e+01 3.482682e-16))
0.0178712     	((1.072718e+02 -1.657500e-14 1.131388e+03) (2.410337e+01 1.382138e-18 9.711631e-01)) ((-5.891706e-14 -4.431385e+02 -1.039227e-14) (7.423162e-18 2.369616e+01 3.480979e-16))
0.0185808     	((1.096139e+02 -1.647968e-14 1.190960e+03) (2.416950e+01 1.614426e-18 9.297247e-01)) ((-5.938026e-14 -4.667853e+02 -1.033412e-14) (6.967711e-18 2.378295e+01 3.464803e-16))
0.0192904     	((1.085983e+02 -1.646975e-14 1.180890e+03) (2.428551e+01 1.672212e-18 8.934937e-01)) ((-5.901690e-14 -4.621958e+02 -1.034189e-14) (7.097577e-18 2.392204e+01 3.458587e-16))
0.02          	((1.087076e+02 -1.652767e-14 1.161069e+03) (2.440477e+01 1.872749e-18 8.653356e-01)) ((-5.862400e-14 -4.530090e+02 -1.034360e-14) (7.176662e-18 2.406579e+01 3.463756e-16))
0.0207692     	((1.050146e+02 -1.780122e-14 1.044814e+03) (2.450989e+01 1.882148e-18 8.611094e-01)) ((-5.446689e-14 -4.041316e+02 -1.109825e-14) (6.685902e-18 2.418774e+01 3.457570e-16))
0.0216054     	((1.086682e+02 -1.655281e-14 1.151203e+03) (2.460412e+01 1.712582e-18 8.525548e-01)) ((-5.821414e-14 -4.471001e+02 -1.034189e-14) (7.093441e-18 2.430389e+01 3.459502e-16))
0.0225251     	((1.090641e+02 -1.656330e-14 1.151147e+03) (2.469273e+01 1.632708e-18 8.416445e-01)) ((-5.827902e-14 -4.490030e+02 -1.034727e-14) (7.492395e-18 2.441746e+01 3.453999e-16))
0.0234959     	((1.006342e+02 -1.678158e-14 1.230214e+03) (2.467358e+01 1.273313e-18 8.304840e-01)) ((-6.012235e-14 -5.125121e+02 -1.067424e-14) (8.216717e-18 2.441917e+01 3.475107e-16))
0.0245274     	((8.872971e+01 -1.904301e-14 1.338745e+03) (2.430305e+01 1.615666e-18 8.724964e-01)) ((-6.439813e-14 -6.222044e+02 -1.214933e-14) (1.157242e-17 2.402258e+01 3.658417e-16))
0.0255589     	((6.940393e+01 -1.723088e-14 1.587684e+03) (2.483303e+01 1.962045e-18 9.063919e-01)) ((-6.834653e-14 -7.866220e+02 -1.184721e-14) (1.624237e-17 2.453152e+01 3.428186e-16))
0.0265904     	((9.935248e+01 -1.711597e-14 1.335132e+03) (2.481312e+01 2.194229e-18 8.743932e-01)) ((-6.297677e-14 -5.975133e+02 -1.103387e-14) (1.599091e-17 2.455001e+01 3.438422e-16))
0.0274285     	((7.954861e+01 -1.984364e-14 1.219178e+03) (2.479149e+01 1.397836e-18 8.632095e-01)) ((-5.586480e-14 -5.566097e+02 -1.291413e-14) (1.498980e-17 2.454751e+01 3.440047e-16))
0.0282666     	((1.038258e+02 -1.751026e-14 1.265838e+03) (2.477052e+01 1.108819e-18 8.502250e-01)) ((-6.108271e-14 -5.478501e+02 -1.111859e-14) (1.474170e-17 2.454508e+01 3.422570e-16))
0.0291692     	((8.797381e+01 -1.747520e-14 1.285254e+03) (2.472409e+01 9.075041e-19 8.445417e-01)) ((-6.131219e-14 -5.719176e+02 -1.125234e-14) (1.483702e-17 2.451032e+01 3.408372e-16))
0.0300718     	((1.074111e+02 -1.799468e-14 1.187563e+03) (2.468589e+01 5.806417e-19 8.325582e-01)) ((-5.848465e-14 -4.958302e+02 -1.127345e-14) (1.588485e-17 2.448618e+01 3.400634e-16))
0.0308991     	((6.917714e+01 -1.985559e-14 1.357557e+03) (2.476247e+01 5.419526e-19 8.196612e-01)) ((-5.909758e-14 -6.646056e+02 -1.331303e-14) (1.409955e-17 2.458341e+01 3.339776e-16))
0.0317265     	((9.869843e+01 -1.797627e-14 1.289972e+03) (2.472276e+01 2.397686e-19 8.165647e-01)) ((-6.124098e-14 -5.747485e+02 -1.147243e-14) (1.414260e-17 2.455176e+01 3.324114e-16))
0.0326457     	((9.214559e+01 -1.797731e-14 1.241240e+03) (2.466542e+01 3.049014e-19 8.160768e-01)) ((-6.005735e-14 -5.513151e+02 -1.144999e-14) (1.436524e-17 2.450087e+01 3.314322e-16))
0.033565      	((8.323550e+01 -2.100930e-14 1.261860e+03) (2.469788e+01 5.548433e-19 8.074090e-01)) ((-5.264603e-14 -5.930173e+02 -1.409117e-14) (1.241192e-17 2.455051e+01 3.244213e-16))
0.0344843     	((8.631490e+01 -1.830935e-14 1.335497e+03) (2.465533e+01 3.776894e-19 8.078091e-01)) ((-6.133615e-14 -6.200604e+02 -1.195083e-14) (1.275959e-17 2.451479e+01 3.213908e-16))
0.0354036     	((8.852979e+01 -1.839642e-14 1.364403e+03) (2.462860e+01 3.103413e-19 8.026445e-01)) ((-6.187359e-14 -6.296861e+02 -1.198460e-14) (1.290903e-17 2.449898e+01 3.181993e-16))
0.0363229     	((8.135680e+01 -2.133284e-14 1.253622e+03) (2.460500e+01 -3.995907e-19 7.902164e-01)) ((-5.669119e-14 -5.876097e+02 -1.394558e-14) (1.311281e-17 2.449268e+01 3.129025e-16))
0.0372422     	((7.586066e+01 -1.998692e-14 1.348763e+03) (2.456450e+01 -3.791157e-19 7.846289e-01)) ((-5.990369e-14 -6.393935e+02 -1.315618e-14) (1.330385e-17 2.446459e+01 3.102712e-16))
0.0381614     	((9.094867e+01 -1.861154e-14 1.383286e+03) (2.447690e+01 -6.621176e-19 7.678227e-01)) ((-6.209521e-14 -6.456397e+02 -1.219898e-14) (1.342460e-17 2.439850e+01 3.107349e-16))
0.0387743     	((7.407768e+01 -1.952033e-14 1.365757e+03) (2.436767e+01 -1.752023e-19 7.383245e-01)) ((-6.158328e-14 -6.546598e+02 -1.286960e-14) (1.259012e-17 2.431523e+01 3.187763e-16))
0.0393871     	((6.797655e+01 -2.211693e-14 1.182631e+03) (2.414524e+01 -6.568208e-19 6.994855e-01)) ((-5.924383e-14 -5.642111e+02 -1.417989e-14) (1.220401e-17 2.413622e+01 3.444504e-16))
0.04          	((7.994545e+01 -1.878293e-14 1.414320e+03) (2.396468e+01 -9.410270e-19 6.676431e-01)) ((-6.269484e-14 -6.746647e+02 -1.243295e-14) (1.010024e-17 2.398864e+01 3.674595e-16))
0.0406897     	((8.182447e+01 -1.898755e-14 1.411400e+03) (2.386798e+01 -2.227476e-18 6.242463e-01)) ((-6.262834e-14 -6.715500e+02 -1.253981e-14) (7.918232e-18 2.393751e+01 3.784869e-16))
0.0414621     	((6.703941e+01 -1.886374e-14 1.255806e+03) (2.382105e+01 -9.454514e-19 5.651653e-01)) ((-6.092317e-14 -6.010249e+02 -1.238174e-14) (2.948059e-18 2.395096e+01 3.871679e-16))
0.0423047     	((6.726492e+01 -1.895859e-14 1.299683e+03) (2.381749e+01 -6.060431e-19 6.355767e-01)) ((-6.405500e-14 -6.075195e+02 -1.219047e-14) (7.366840e-18 2.388412e+01 3.938537e-16))
0.043236      	((7.775705e+01 -1.893257e-14 1.378680e+03) (2.383384e+01 -3.743134e-19 6.372878e-01)) ((-6.345352e-14 -6.459442e+02 -1.232449e-14) (8.695948e-18 2.390385e+01 3.959657e-16))
0.0441674     	((7.624914e+01 -1.898117e-14 1.384784e+03) (2.385401e+01 -3.998953e-19 6.307484e-01)) ((-6.347032e-14 -6.512081e+02 -1.237422e-14) (1.002331e-17 2.393361e+01 3.972980e-16))
0.0450987     	((4.976470e+01 -1.781461e-14 1.255468e+03) (2.386045e+01 4.243859e-19 6.286017e-01)) ((-6.203658e-14 -6.120814e+02 -1.190829e-14) (9.895565e-18 2.394691e+01 3.982853e-16))
0.04603       	((5.813560e+01 -1.916126e-14 1.476788e+03) (2.383897e+01 6.551509e-19 6.202966e-01)) ((-6.747101e-14 -7.226865e+02 -1.261314e-14) (1.109623e-17 2.393610e+01 3.998341e-16))
0.0469614     	((6.777993e+01 -1.912201e-14 1.407613e+03) (2.350700e+01 -1.771488e-18 6.237623e-01)) ((-6.639462e-14 -6.743496e+02 -1.242532e-14) (1.532907e-17 2.360089e+01 3.660357e-16))
0.0477763     	((3.472088e+01 -2.029524e-14 1.160026e+03) (2.349866e+01 -1.107810e-18 6.274512e-01)) ((-6.672039e-14 -5.552334e+02 -1.279660e-14) (1.760230e-17 2.359047e+01 3.553417e-16))
0.0485912     	((6.542048e+01 -1.930095e-14 1.399369e+03) (2.351703e+01 -6.348976e-19 6.259631e-01)) ((-6.722649e-14 -6.676317e+02 -1.244456e-14) (1.928808e-17 2.361217e+01 3.495496e-16))
0.0494061     	((4.998797e+01 -1.951279e-14 1.378939e+03) (2.347818e+01 1.052724e-18 6.256391e-01)) ((-6.833896e-14 -6.663004e+02 -1.253150e-14) (1.958488e-17 2.357547e+01 3.576362e-16))
0.0502889     	((3.841425e+01 -2.060777e-14 1.115137e+03) (2.333715e+01 5.271799e-19 6.261598e-01)) ((-7.440748e-14 -5.173868e+02 -1.207637e-14) (2.278847e-17 2.343598e+01 3.927962e-16))
0.0511718     	((4.871506e+01 -1.946612e-14 1.379742e+03) (2.330030e+01 6.118306e-19 6.149055e-01)) ((-6.862490e-14 -6.654914e+02 -1.246807e-14) (2.323201e-17 2.341200e+01 4.080304e-16))
0.0520546     	((4.065923e+01 -1.989730e-14 1.148636e+03) (2.330441e+01 -2.050943e-19 6.044939e-01)) ((-6.227422e-14 -5.268533e+02 -1.296021e-14) (2.334658e-17 2.342915e+01 4.178195e-16))
0.0529374     	((3.035423e+01 -1.995794e-14 1.168106e+03) (2.332479e+01 -6.487608e-20 5.862941e-01)) ((-6.328119e-14 -5.494860e+02 -1.305138e-14) (2.311116e-17 2.346954e+01 4.256325e-16))
0.0538202     	((4.975316e+01 -2.009384e-14 1.320917e+03) (2.334847e+01 5.905852e-19 5.633960e-01)) ((-7.004243e-14 -6.167358e+02 -1.258277e-14) (2.238039e-17 2.351733e+01 4.307603e-16))
0.0547031     	((3.929204e+00 -2.660181e-14 8.558639e+02) (2.338795e+01 5.181618e-19 5.423657e-01)) ((-5.708029e-14 -3.673823e+02 -1.784339e-14) (2.122571e-17 2.358056e+01 4.332698e-16))
0.0555859     	((4.568658e+01 -2.075741e-14 1.278001e+03) (2.340680e+01 -2.501250e-19 5.124827e-01)) ((-7.134221e-14 -5.858617e+02 -1.280423e-14) (2.077927e-17 2.363075e+01 4.349930e-16))
0.0564687     	((2.427472e+01 -2.527481e-14 1.094747e+03) (2.342520e+01 8.592663e-19 5.033562e-01)) ((-6.576003e-14 -4.933664e+02 -1.648768e-14) (1.843173e-17 2.366311e+01 4.364715e-16))
0.057175      	((-1.399266e+02 -4.726699e-14 9.291274e+02) (2.335752e+01 -2.314815e-20 4.963004e-01)) ((-9.578701e-14 -4.599709e+02 -3.147191e-14) (1.733729e-17 2.360303e+01 4.377106e-16))
0.0578812     	((7.253974e+00 -2.711735e-14 1.181043e+03) (2.334328e+01 -3.042605e-20 4.878162e-01)) ((-8.117536e-14 -5.409462e+02 -1.680983e-14) (1.629173e-17 2.360047e+01 4.343474e-16))
0.0585875     	((-9.733355e+01 -5.661408e-14 3.188751e+02) (2.338315e+01 -3.315630e-19 4.977793e-01)) ((-4.432823e-14 -5.334529e+01 -4.138120e-14) (1.470234e-17 2.363615e+01 4.260613e-16))
0.0592937     	((-1.139648e+00 -3.066082e-14 1.001676e+03) (2.344507e+01 2.612425e-19 5.375303e-01)) ((-7.810610e-14 -4.435019e+02 -1.966888e-14) (1.585493e-17 2.367007e+01 4.059242e-16))
0.06          	((-1.030723e+02 -4.764072e-14 5.212175e+02) (2.352385e+01 3.641870e-18 6.156955e-01)) ((-5.866044e-14 -1.620851e+02 -3.517350e-14) (1.768688e-17 2.368709e+01 3.836719e-16))
0.0608        	((-3.538666e+02 -8.704741e-14 -3.394305e+02) (2.348939e+01 6.049649e-18 6.325863e-01)) ((-2.708535e-14 3.210226e+02 -7.041449e-14) (2.551088e-17 2.364374e+01 3.549699e-16))
0.0616        	((-3.017110e+03 -4.786483e-13 -1.523090e+04) (2.317370e+01 3.419038e-18 6.947635e-01)) ((-1.228746e-13 9.142438e+03 -3.418715e-13) (2.220323e-17 2.323556e+01 2.921283e-16))
0.0624762     	((1.707349e+02 -1.381114e-14 9.404230e+02) (2.324287e+01 2.645286e-18 7.088273e-01)) ((-6.416912e-14 -2.315237e+02 -9.162999e-15) (2.004282e-17 2.333001e+01 2.765515e-16))
0.0632063     	((2.608368e+02 -1.105876e-14 8.726692e+02) (2.325301e+01 1.483525e-18 7.412167e-01)) ((-8.305733e-14 -2.661375e+02 -9.765358e-15) (1.921519e-17 2.335756e+01 2.530221e-16))
0.0639365     	((1.550546e+02 -1.625861e-14 1.302522e+03) (2.314693e+01 1.121099e-18 7.595045e-01)) ((-6.221214e-14 -4.095626e+02 -8.957919e-15) (1.667048e-17 2.325915e+01 2.398513e-16))
0.0647397     	((1.764968e+02 -1.651454e-14 1.234985e+03) (2.295025e+01 9.215404e-19 7.700913e-01)) ((-6.125730e-14 -3.590140e+02 -9.192729e-15) (1.413541e-17 2.306275e+01 2.311194e-16))
0.0656373     	((1.156679e+02 -1.634497e-14 1.240520e+03) (2.258572e+01 5.601450e-19 7.499325e-01)) ((-5.981091e-14 -4.446614e+02 -9.769448e-15) (1.249282e-17 2.268981e+01 2.251996e-16))
0.0663933     	((1.282914e+02 -1.625690e-14 1.173349e+03) (2.229697e+01 3.432026e-19 7.056971e-01)) ((-5.849828e-14 -3.922158e+02 -9.495978e-15) (1.096406e-17 2.239451e+01 2.223074e-16))
0.0671094     	((1.183376e+02 -1.629047e-14 1.259988e+03) (2.221649e+01 5.045302e-19 6.244717e-01)) ((-6.036096e-14 -4.555329e+02 -9.759912e-15) (9.795279e-18 2.232173e+01 2.214187e-16))
0.0678677     	((1.240445e+02 -1.615904e-14 1.245970e+03) (2.229187e+01 6.144566e-19 5.378160e-01)) ((-6.017374e-14 -4.407058e+02 -9.570491e-15) (8.172796e-18 2.241599e+01 2.199443e-16))
0.068626      	((1.120275e+02 -1.622716e-14 1.322426e+03) (2.243564e+01 5.431574e-19 4.758631e-01)) ((-6.173709e-14 -5.061635e+02 -9.889588e-15) (7.271916e-18 2.258242e+01 2.195510e-16))
0.0694384     	((1.178142e+02 -1.617544e-14 1.288585e+03) (2.259755e+01 4.215737e-19 4.398129e-01)) ((-6.101070e-14 -4.788375e+02 -9.731476e-15) (6.776849e-18 2.276410e+01 2.208576e-16))
0.0702508     	((5.488097e+01 -1.574674e-14 2.289894e+03) (2.275571e+01 8.408930e-21 4.187689e-01)) ((-8.404311e-14 -1.181659e+03 -1.127540e-14) (6.256192e-18 2.294166e+01 2.217848e-16))
0.0710633     	((1.093384e+02 -1.706067e-14 1.488585e+03) (2.291980e+01 -1.115345e-19 4.063919e-01)) ((-6.581204e-14 -6.662932e+02 -1.024193e-14) (6.251823e-18 2.312503e+01 2.237915e-16))
0.0718757     	((8.406144e+01 -1.686175e-14 1.840821e+03) (2.306088e+01 3.543442e-19 3.978815e-01)) ((-7.496353e-14 -9.289860e+02 -1.113783e-14) (5.841166e-18 2.328467e+01 2.281156e-16))
0.0726881     	((4.097379e+01 -1.970601e-14 2.197198e+03) (2.316423e+01 -1.726474e-19 3.930406e-01)) ((-7.984515e-14 -1.230082e+03 -1.408407e-14) (6.292927e-18 2.340302e+01 2.292114e-16))
0.0735005     	((7.518037e+01 -2.273400e-14 1.443210e+03) (2.328217e+01 -9.841964e-19 3.876699e-01)) ((-6.124693e-14 -7.077186e+02 -1.447028e-14) (7.383728e-18 2.353549e+01 2.334594e-16))
0.074313      	((5.650089e+01 -2.826099e-14 6.703648e+02) (2.337640e+01 -8.590835e-19 3.907973e-01)) ((-4.375526e-14 -4.141890e+02 -1.761701e-14) (6.070868e-18 2.363786e+01 2.329675e-16))
0.0751254     	((5.889234e+01 -3.518788e-14 -6.433800e+00) (2.344651e+01 2.479260e-19 3.987516e-01)) ((-3.535457e-14 -1.569559e+02 -2.121539e-14) (4.654733e-18 2.371905e+01 2.332866e-16))
0.0759378     	((5.513330e+01 -1.800628e-14 1.327011e+03) (2.353271e+01 -5.887737e-19 4.018156e-01)) ((-6.808429e-14 -5.957328e+02 -1.193542e-14) (7.527567e-18 2.382285e+01 2.370917e-16))
0.0767503     	((-1.455877e+01 -1.647865e-14 1.331571e+03) (2.358134e+01 6.642925e-19 3.962267e-01)) ((-8.388132e-14 -6.312923e+02 -1.059465e-14) (9.854966e-18 2.389538e+01 2.412662e-16))
0.0775627     	((-1.030007e+02 -2.705359e-14 1.018854e+03) (2.358573e+01 8.525915e-19 4.107455e-01)) ((-7.037085e-14 -4.426549e+02 -1.969343e-14) (1.260435e-17 2.390611e+01 2.556018e-16))
0.0783751     	((-6.958023e+01 -5.085431e-14 5.227779e+02) (2.371886e+01 -9.913484e-19 3.585930e-01)) ((-3.646597e-14 -6.299256e+01 -3.838811e-14) (2.202805e-17 2.410533e+01 2.659043e-16))
0.0791876     	((-4.897018e+02 -8.778309e-14 -6.012788e+01) (2.371736e+01 2.070556e-18 4.062182e-01)) ((-1.059411e-13 3.012653e+02 -6.402703e-14) (1.407760e-17 2.406904e+01 2.704869e-16))
0.08          	((-1.284306e+03 -2.286512e-13 -3.913606e+03) (2.366700e+01 -4.625023e-19 4.128254e-01)) ((-1.006656e-13 2.744630e+03 -1.686628e-13) (1.105906e-17 2.397784e+01 2.375431e-16))
0.0808696     	((3.789810e+01 -4.255270e-14 -2.966891e+03) (2.374926e+01 7.464562e-19 4.881252e-01)) ((-1.684237e-14 1.175202e+03 -2.467724e-14) (1.073308e-17 2.402627e+01 2.318463e-16))
0.0818261     	((1.086662e+02 -1.555571e-14 1.570547e+03) (2.376645e+01 5.706228e-19 5.530600e-01)) ((-7.137657e-14 -6.655260e+02 -1.059480e-14) (1.053508e-17 2.403585e+01 2.261357e-16))
0.0825833     	((1.268940e+02 -1.481559e-14 1.546736e+03) (2.370559e+01 5.761321e-19 6.120197e-01)) ((-7.659376e-14 -6.614137e+02 -1.136226e-14) (1.071144e-17 2.396271e+01 2.231854e-16))
0.0833406     	((1.717487e+02 -1.799748e-14 1.461174e+03) (2.361376e+01 9.794134e-19 6.652741e-01)) ((-7.927544e-14 -6.159834e+02 -1.447662e-14) (1.295531e-17 2.385752e+01 2.180670e-16))
0.0840978     	((1.006399e+02 -1.846163e-14 1.646080e+03) (2.350221e+01 1.007739e-18 6.788724e-01)) ((-6.495236e-14 -7.051896e+02 -1.283700e-14) (1.216605e-17 2.375621e+01 2.207370e-16))
0.0848929     	((5.805746e+01 -1.920012e-14 1.784658e+03) (2.334987e+01 4.583268e-19 7.018010e-01)) ((-7.865246e-14 -8.072845e+02 -1.277892e-14) (1.499950e-17 2.358311e+01 2.309569e-16))
0.0857816     	((5.674462e+01 -2.384861e-14 1.389406e+03) (2.320863e+01 -5.323999e-19 7.098505e-01)) ((-7.112748e-14 -5.285222e+02 -1.607609e-14) (1.622243e-17 2.343353e+01 2.390256e-16))
0.0867295     	((-8.600205e+01 -3.681867e-14 1.082597e+03) (2.326872e+01 -3.264769e-18 5.105419e-01)) ((-7.450109e-14 -3.009074e+02 -2.808761e-14) (-5.808642e-18 2.366318e+01 2.231234e-16))
0.0876142     	((-3.069602e+02 -6.053432e-14 6.724715e+02) (2.331388e+01 -2.272464e-18 5.063687e-01)) ((-1.348372e-13 -1.747355e+01 -4.269933e-14) (2.717439e-18 2.369881e+01 2.187261e-16))
0.0883883     	((-1.879013e+02 -5.148450e-14 7.272278e+02) (2.340842e+01 -1.312337e-18 5.209033e-01)) ((-8.479551e-14 -1.092176e+02 -3.720452e-14) (9.784625e-18 2.376269e+01 2.171424e-16))
0.0891624     	((-3.595927e+01 -3.732642e-14 8.028038e+02) (2.358676e+01 -7.738726e-19 5.023750e-01)) ((-4.095754e-14 -1.983784e+02 -2.747446e-14) (5.683930e-18 2.394870e+01 2.148457e-16))
0.0899961     	((8.566290e+00 -2.998503e-14 1.102749e+03) (2.381696e+01 -1.247171e-18 4.606957e-01)) ((-6.451014e-14 -3.876859e+02 -2.070710e-14) (6.124741e-18 2.421217e+01 2.113017e-16))
0.0908297     	((-5.590676e+01 -4.544704e-14 1.949465e+02) (2.402688e+01 9.779190e-19 4.227451e-01)) ((-6.474151e-14 2.817167e+01 -3.004101e-14) (1.319095e-17 2.445188e+01 2.232641e-16))
0.0916634     	((-5.177630e+02 -1.520119e-13 -6.895353e+03) (2.398106e+01 -1.149621e-18 5.009226e-01)) ((9.722305e-14 3.111806e+03 -9.993894e-14) (8.964769e-18 2.434746e+01 2.176105e-16))
0.0924971     	((2.499342e+02 -2.357730e-14 6.784236e+02) (2.395650e+01 -1.529072e-18 5.612405e-01)) ((-1.120409e-13 -2.608269e+02 -1.983596e-14) (1.369921e-17 2.430478e+01 2.227721e-16))
0.0934349     	((1.035250e+02 -2.727157e-14 1.317836e+03) (2.382108e+01 -9.026214e-19 6.269611e-01)) ((-7.999205e-14 -4.230330e+02 -1.823668e-14) (1.414078e-17 2.415112e+01 2.283173e-16))
0.0942556     	((2.712488e+00 -2.795176e-14 1.102512e+03) (2.361941e+01 -1.156784e-18 6.197595e-01)) ((-7.290546e-14 -4.122477e+02 -1.902144e-14) (1.410651e-17 2.394055e+01 2.270147e-16))
0.0949736     	((1.047120e+01 -2.874501e-14 1.021499e+03) (2.341083e+01 -2.461582e-19 5.882617e-01)) ((-7.585893e-14 -3.566318e+02 -1.947620e-14) (1.500281e-17 2.372358e+01 2.273457e-16))
0.0956917     	((-1.488166e+00 -2.990298e-14 9.401333e+02) (2.325108e+01 7.657879e-19 5.456590e-01)) ((-6.967563e-14 -3.185867e+02 -2.070540e-14) (1.452265e-17 2.355687e+01 2.288770e-16))
0.0964097     	((-1.776809e+01 -3.462010e-14 6.419972e+02) (2.315302e+01 2.479348e-18 5.033105e-01)) ((-5.262507e-14 -1.753064e+02 -2.450173e-14) (1.183344e-17 2.345704e+01 2.300492e-16))
0.0971278     	((-6.495827e+01 -4.522272e-14 1.340613e+02) (2.307289e+01 2.188990e-18 4.920131e-01)) ((-5.126050e-14 5.779699e+01 -3.054462e-14) (1.271296e-17 2.336492e+01 2.315166e-16))
0.0978458     	((-2.935175e+02 -1.030735e-13 -3.289473e+03) (2.299045e+01 2.316320e-18 4.755070e-01)) ((1.695497e-14 1.601274e+03 -7.159177e-14) (1.445274e-17 2.327828e+01 2.375106e-16))
0.0985639     	((3.910004e+01 -2.470666e-14 1.394309e+03) (2.295335e+01 2.182578e-18 4.957754e-01)) ((-7.888499e-14 -5.190848e+02 -1.676446e-14) (1.446161e-17 2.323423e+01 2.383279e-16))
0.0992819     	((3.016600e+01 -2.570203e-14 1.329771e+03) (2.295265e+01 2.124171e-18 5.116842e-01)) ((-7.746186e-14 -4.838087e+02 -1.752169e-14) (1.465804e-17 2.323184e+01 2.361404e-16))
0.1           	((2.626089e+01 -2.613838e-14 1.276833e+03) (2.302330e+01 1.821054e-18 5.134863e-01)) ((-7.798040e-14 -4.576625e+02 -1.786752e-14) (1.471240e-17 2.330834e+01 2.334738e-16))
0.1008        	((1.753189e+01 -2.703825e-14 1.184633e+03) (2.317750e+01 1.619294e-18 4.992322e-01)) ((-7.664540e-14 -4.173876e+02 -1.852203e-14) (1.550005e-17 2.348102e+01 2.344108e-16))
0.101635      	((1.874348e+00 -2.911221e-14 9.641964e+02) (2.332150e+01 1.551470e-18 4.993670e-01)) ((-7.074639e-14 -3.117123e+02 -2.040196e-14) (1.651249e-17 2.364358e+01 2.366052e-16))
0.102433      	((3.295353e+00 -2.904627e-14 9.807384e+02) (2.346509e+01 1.696322e-18 4.904944e-01)) ((-7.119818e-14 -3.249834e+02 -2.051182e-14) (1.638718e-17 2.380979e+01 2.399909e-16))
0.103232      	((-2.674551e+00 -3.237865e-14 7.030495e+02) (2.358746e+01 1.949612e-18 4.901957e-01)) ((-6.444859e-14 -2.062542e+02 -2.307371e-14) (1.532612e-17 2.394775e+01 2.431211e-16))
0.10403       	((-2.295711e+02 -9.875377e-14 -3.188792e+03) (2.355229e+01 1.223614e-18 5.497278e-01)) ((1.681127e-14 1.503477e+03 -6.735132e-14) (1.530100e-17 2.388251e+01 2.476430e-16))
0.104829      	((4.040409e+01 -2.500742e-14 1.364907e+03) (2.351061e+01 1.251682e-18 5.943053e-01)) ((-7.750234e-14 -5.016834e+02 -1.663323e-14) (1.491260e-17 2.383011e+01 2.504606e-16))
0.105721      	((9.595045e+01 -2.514351e-14 1.284152e+03) (2.339575e+01 7.501762e-19 6.384453e-01)) ((-7.954014e-14 -4.417299e+02 -1.618785e-14) (1.381309e-17 2.370186e+01 2.451684e-16))
0.106741      	((2.172784e+01 -2.732620e-14 1.197429e+03) (2.317684e+01 1.355507e-18 6.559565e-01)) ((-7.352231e-14 -4.035976e+02 -1.872519e-14) (1.341586e-17 2.346849e+01 2.394554e-16))
0.107478      	((-3.758484e+01 -3.366913e-14 8.508927e+02) (2.292818e+01 1.142737e-18 6.510275e-01)) ((-6.500922e-14 -2.462147e+02 -2.354870e-14) (1.295562e-17 2.320767e+01 2.346465e-16))
0.108173      	((-1.272085e+02 -5.293936e-14 5.552487e+01) (2.270002e+01 1.530056e-18 6.008109e-01)) ((-2.861951e-14 1.824465e+02 -3.788266e-14) (1.351267e-17 2.297893e+01 2.375553e-16))
0.108869      	((-2.908097e+01 -3.332160e-14 8.151606e+02) (2.255958e+01 1.324110e-18 5.182040e-01)) ((-6.395038e-14 -2.337573e+02 -2.339849e-14) (1.424792e-17 2.284922e+01 2.400482e-16))
0.109565      	((-3.466470e+01 -3.555305e-14 7.038833e+02) (2.244682e+01 7.331040e-19 4.609789e-01)) ((-6.152138e-14 -1.882257e+02 -2.448442e-14) (1.524208e-17 2.274126e+01 2.438287e-16))
0.11026       	((-1.721209e+01 -3.329897e-14 9.011775e+02) (2.236789e+01 4.230280e-19 4.147245e-01)) ((-6.471528e-14 -2.739195e+02 -2.290299e-14) (1.567154e-17 2.266699e+01 2.484977e-16))
0.11101       	((-3.676799e+01 -3.834432e-14 6.195772e+02) (2.233464e+01 2.440928e-19 3.755877e-01)) ((-5.563283e-14 -1.585943e+02 -2.556857e-14) (1.434225e-17 2.263823e+01 2.508900e-16))
0.111827      	((-3.839304e+01 -3.941880e-14 4.944761e+02) (2.233457e+01 2.218072e-19 3.449028e-01)) ((-5.660712e-14 -1.116436e+02 -2.614518e-14) (1.490417e-17 2.264283e+01 2.516325e-16))
0.112644      	((-8.142064e+01 -6.039081e-14 -1.249211e+03) (2.232244e+01 8.616575e-19 3.609087e-01)) ((-2.496431e-14 5.389902e+02 -3.723389e-14) (1.133285e-17 2.262233e+01 2.478797e-16))
0.113462      	((5.022713e-01 -3.105336e-14 1.077781e+03) (2.244008e+01 1.106971e-18 3.572935e-01)) ((-6.802041e-14 -3.536707e+02 -2.124942e-14) (9.775265e-18 2.274390e+01 2.408154e-16))
0.114279      	((-1.033507e+01 -3.200638e-14 1.006745e+03) (2.261869e+01 1.319390e-18 3.769123e-01)) ((-6.679165e-14 -3.215071e+02 -2.208991e-14) (8.927414e-18 2.292832e+01 2.368811e-16))
0.115096      	((-1.064780e+01 -3.236907e-14 9.669551e+02) (2.278653e+01 1.255823e-18 3.986232e-01)) ((-6.622464e-14 -2.999569e+02 -2.235896e-14) (8.335987e-18 2.310278e+01 2.355384e-16))
0.115913      	((-1.991367e+01 -3.299385e-14 8.762663e+02) (2.292842e+01 1.026971e-18 4.225064e-01)) ((-6.501693e-14 -2.642477e+02 -2.296810e-14) (7.552024e-18 2.325061e+01 2.340496e-16))