# Forces      
# CofR        : (0.000000e+00 0.000000e+00 -1.000000e+00)
# Time        forces(pressure viscous)	moments(pressure viscous)
0             	((5.684342e-14 -3.955919e-14 9.094947e-13) (9.087123e+00 5.063952e-18 2.409371e+00)) ((-5.701534e-14 0.000000e+00 -2.905862e-14) (-3.466308e-17 7.898742e+00 1.121796e-16))
1.19976e-05   	((1.344264e+05 4.967861e-12 2.762893e+06) (9.132612e+00 5.042276e-18 2.087159e+00)) ((-7.573289e-11 -1.020249e+06 5.270639e-12) (-2.232044e-17 8.098732e+00 1.111795e-16))
2.63878e-05   	((1.388193e+04 6.591541e-13 4.134779e+05) (9.116088e+00 4.837754e-18 1.977621e+00)) ((-1.108557e-11 -1.778666e+05 5.355793e-13) (-1.857622e-17 8.126837e+00 1.109083e-16))
4.36511e-05   	((5.410539e+03 3.691198e-13 2.318236e+05) (9.106011e+00 4.784741e-18 1.924890e+00)) ((-6.197187e-12 -1.031759e+05 2.568836e-13) (-1.678310e-17 8.139525e+00 1.110965e-16))
6.43527e-05   	((3.951990e+03 2.512330e-13 1.513968e+05) (9.112977e+00 4.726528e-18 1.893047e+00)) ((-4.089804e-12 -6.589049e+04 1.843453e-13) (-1.575825e-17 8.161165e+00 1.114148e-16))
8.91792e-05   	((4.275552e+03 1.750904e-13 1.075595e+05) (9.128579e+00 4.683424e-18 1.873480e+00)) ((-2.964056e-12 -4.481418e+04 1.512488e-13) (-1.512853e-17 8.187464e+00 1.113684e-16))
0.000118941   	((2.642124e+03 1.226907e-13 7.687631e+04) (9.145546e+00 4.641997e-18 1.857580e+00)) ((-2.115009e-12 -3.178468e+04 1.030731e-13) (-1.466218e-17 8.213256e+00 1.118792e-16))
0.000154634   	((2.828400e+03 8.803328e-14 6.125585e+04) (9.168152e+00 4.596323e-18 1.844190e+00)) ((-1.704910e-12 -2.462126e+04 8.392393e-14) (-1.433689e-17 8.243647e+00 1.125501e-16))
0.000197405   	((2.145657e+03 5.963509e-14 4.965751e+04) (9.190924e+00 4.545075e-18 1.832749e+00)) ((-1.377149e-12 -2.070454e+04 5.429850e-14) (-1.406600e-17 8.273642e+00 1.133736e-16))
0.000248707   	((2.158959e+03 4.457960e-14 3.859326e+04) (9.221032e+00 4.489940e-18 1.822483e+00)) ((-1.089759e-12 -1.510059e+04 5.046065e-14) (-1.386664e-17 8.310768e+00 1.143853e-16))
0.000310237   	((1.701364e+03 3.265816e-14 2.826583e+04) (9.255714e+00 4.487357e-18 1.815553e+00)) ((-8.418180e-13 -1.110297e+04 3.404342e-14) (-1.346808e-17 8.352236e+00 1.150744e-16))
0.000383982   	((1.826444e+03 2.271565e-14 2.503266e+04) (9.303649e+00 4.418925e-18 1.806781e+00)) ((-7.312422e-13 -9.281094e+03 3.393781e-14) (-1.333403e-17 8.407235e+00 1.164670e-16))
0.000472342   	((1.534101e+03 1.600228e-14 2.085782e+04) (9.363305e+00 4.322304e-18 1.798058e+00)) ((-6.131302e-13 -7.657956e+03 2.752313e-14) (-1.324971e-17 8.474161e+00 1.181060e-16))
0.000577897   	((1.519836e+03 1.175550e-14 1.801607e+04) (9.442654e+00 4.193177e-18 1.789442e+00)) ((-5.423120e-13 -6.409627e+03 2.433482e-14) (-1.317147e-17 8.560949e+00 1.199915e-16))
0.000704014   	((1.627222e+03 1.001832e-14 1.567071e+04) (9.550346e+00 4.060294e-18 1.784058e+00)) ((-5.055715e-13 -5.490116e+03 1.958509e-14) (-1.291648e-17 8.675877e+00 1.220513e-16))
0.000854764   	((1.328955e+03 3.813250e-15 1.358333e+04) (9.690943e+00 3.928346e-18 1.776790e+00)) ((-4.227826e-13 -4.729291e+03 1.672700e-14) (-1.289045e-17 8.823779e+00 1.246354e-16))
0.00103538    	((1.376892e+03 8.401724e-15 1.153360e+04) (9.880826e+00 3.762072e-18 1.775155e+00)) ((-3.990491e-13 -3.870166e+03 1.437757e-14) (-1.288938e-17 9.019621e+00 1.268409e-16))
0.00125089    	((1.122114e+03 2.462682e-15 1.060422e+04) (1.013547e+01 3.530376e-18 1.777999e+00)) ((-3.513526e-13 -3.692232e+03 1.115836e-14) (-1.282076e-17 9.278613e+00 1.298371e-16))
0.00150772    	((1.417346e+03 4.959732e-15 1.048728e+04) (1.049259e+01 3.264398e-18 1.781847e+00)) ((-3.758540e-13 -3.460444e+03 1.252021e-14) (-1.255133e-17 9.638936e+00 1.330760e-16))
0.00181593    	((3.387594e+03 2.499786e-14 1.444101e+04) (1.108555e+01 3.255164e-18 1.764017e+00)) ((-6.243657e-13 -3.703072e+03 2.946319e-14) (-1.099479e-17 1.023883e+01 1.351198e-16))
0.00217961    	((-2.058771e+02 -3.610479e-15 1.183033e+04) (1.154062e+01 2.812074e-18 1.829768e+00)) ((-3.262291e-13 -6.526343e+03 -9.975693e-15) (-9.780638e-18 1.068986e+01 1.437931e-16))
0.00259404    	((-1.340169e+01 -9.364023e-15 7.948765e+03) (1.198644e+01 2.540339e-18 1.887201e+00)) ((-2.452365e-13 -4.144299e+03 -9.759952e-15) (-6.438530e-18 1.113085e+01 1.578872e-16))
0.00305209    	((1.454536e+02 -9.935295e-15 5.178670e+03) (1.245459e+01 2.208946e-18 1.900574e+00)) ((-1.705741e-13 -2.214033e+03 -4.778584e-15) (-3.754195e-18 1.159813e+01 1.711825e-16))
0.00353632    	((1.836553e+02 -1.014402e-14 4.224098e+03) (1.287302e+01 2.133861e-18 1.910740e+00)) ((-1.481951e-13 -1.730732e+03 -4.277793e-15) (-4.222832e-18 1.201176e+01 1.851316e-16))
0.00402054    	((2.099981e+02 -8.395331e-15 4.146446e+03) (1.325102e+01 2.197180e-18 1.894737e+00)) ((-1.493359e-13 -1.579484e+03 -3.464833e-15) (-4.428396e-18 1.238697e+01 1.927028e-16))
0.00446442    	((2.177219e+02 -8.194361e-15 3.668371e+03) (1.357145e+01 2.008902e-18 1.876122e+00)) ((-1.304134e-13 -1.393364e+03 -2.813945e-15) (-6.925225e-18 1.270438e+01 1.960846e-16))
0.0048843     	((2.834031e+02 -8.383735e-15 4.378330e+03) (1.396145e+01 1.969513e-18 1.797691e+00)) ((-1.577498e-13 -1.547593e+03 -1.374101e-15) (-7.320658e-18 1.310428e+01 1.988527e-16))
0.00530418    	((2.327171e+02 -1.212215e-14 3.238497e+03) (1.434095e+01 2.129443e-18 1.755978e+00)) ((-1.316457e-13 -1.200182e+03 -4.684368e-15) (-5.902025e-18 1.348815e+01 2.020705e-16))
0.00571239    	((2.315686e+02 -8.008471e-15 3.164871e+03) (1.472048e+01 1.341698e-18 1.718371e+00)) ((-1.371239e-13 -1.148479e+03 -5.202892e-15) (-4.583075e-18 1.387105e+01 2.066841e-16))
0.00612061    	((2.704262e+02 -1.287105e-14 2.666490e+03) (1.510371e+01 9.344791e-19 1.693765e+00)) ((-1.252376e-13 -1.000087e+03 -6.569220e-15) (-5.508526e-18 1.425608e+01 2.101594e-16))
0.00651717    	((2.495231e+02 -9.712258e-15 2.862967e+03) (1.546950e+01 1.251558e-18 1.670481e+00)) ((-1.323233e-13 -1.035107e+03 -6.239512e-15) (-3.947925e-18 1.462448e+01 2.148859e-16))
0.00691372    	((2.315270e+02 -1.126931e-14 2.827041e+03) (1.583812e+01 1.298357e-18 1.651924e+00)) ((-1.224990e-13 -1.014526e+03 -5.774465e-15) (-2.018865e-18 1.499608e+01 2.202482e-16))
0.00731027    	((2.910907e+02 -1.353125e-14 2.301374e+03) (1.618549e+01 1.501728e-18 1.675421e+00)) ((-1.268202e-13 -8.672015e+02 -6.202893e-15) (2.326270e-18 1.533829e+01 2.242297e-16))
0.00770683    	((2.123169e+02 -1.284997e-14 2.748007e+03) (1.654003e+01 1.777194e-18 1.646797e+00)) ((-1.106894e-13 -9.825801e+02 -5.266858e-15) (4.882797e-18 1.570106e+01 2.324546e-16))
0.00809099    	((2.033701e+02 -1.296549e-14 2.732905e+03) (1.687798e+01 1.804173e-18 1.636619e+00)) ((-1.079371e-13 -9.713472e+02 -5.287637e-15) (5.985352e-18 1.604449e+01 2.401090e-16))
0.00847515    	((2.329390e+02 -1.443679e-14 2.248447e+03) (1.719820e+01 1.815316e-18 1.653093e+00)) ((-1.035386e-13 -8.268852e+02 -5.728232e-15) (5.538996e-18 1.636318e+01 2.486413e-16))
0.00885931    	((2.063413e+02 -1.316183e-14 2.557537e+03) (1.747791e+01 1.836660e-18 1.652348e+00)) ((-1.035513e-13 -9.072625e+02 -5.325540e-15) (4.896742e-18 1.664558e+01 2.528950e-16))
0.00924347    	((2.049417e+02 -1.292750e-14 2.565787e+03) (1.773323e+01 1.842159e-18 1.654526e+00)) ((-1.033962e-13 -9.357328e+02 -5.310722e-15) (3.612302e-18 1.690203e+01 2.524810e-16))
0.00962764    	((2.024931e+02 -1.312093e-14 2.470856e+03) (1.795462e+01 1.817919e-18 1.630241e+00)) ((-9.997337e-14 -8.742270e+02 -5.245139e-15) (3.381410e-18 1.713253e+01 2.522469e-16))
0.0100118     	((1.973975e+02 -1.356913e-14 2.361718e+03) (1.817057e+01 1.683966e-18 1.620832e+00)) ((-9.647314e-14 -8.434911e+02 -5.567159e-15) (2.894803e-18 1.735304e+01 2.520940e-16))
0.010396      	((2.024527e+02 -1.401559e-14 2.161827e+03) (1.836469e+01 1.175827e-18 1.625988e+00)) ((-9.236137e-14 -7.800251e+02 -5.800768e-15) (2.481350e-18 1.754651e+01 2.520487e-16))
0.0107801     	((1.748852e+02 -1.386748e-14 2.492243e+03) (1.856614e+01 8.542447e-19 1.614299e+00)) ((-9.773309e-14 -9.069005e+02 -6.144887e-15) (2.648983e-18 1.775287e+01 2.518600e-16))
0.0111643     	((1.778928e+02 -1.393023e-14 2.391719e+03) (1.873617e+01 6.660861e-19 1.597310e+00)) ((-9.536052e-14 -8.440616e+02 -6.074413e-15) (2.889304e-18 1.792971e+01 2.531013e-16))
0.0115484     	((1.770102e+02 -1.401306e-14 2.352030e+03) (1.889399e+01 4.960463e-19 1.570224e+00)) ((-9.440612e-14 -8.295313e+02 -6.158445e-15) (3.007791e-18 1.809631e+01 2.548459e-16))
0.0119326     	((1.689591e+02 -1.438834e-14 2.372203e+03) (1.905928e+01 4.260930e-19 1.546353e+00)) ((-9.489648e-14 -8.637585e+02 -6.493863e-15) (3.213632e-18 1.827134e+01 2.559097e-16))
0.012336      	((1.831088e+02 -1.663796e-14 1.993734e+03) (1.919522e+01 4.730790e-19 1.551875e+00)) ((-9.256830e-14 -7.273340e+02 -7.094188e-15) (4.200621e-18 1.840730e+01 2.596258e-16))
0.0127192     	((1.664670e+02 -1.424895e-14 2.303014e+03) (1.930556e+01 3.404716e-19 1.539577e+00)) ((-9.216120e-14 -8.121829e+02 -6.424107e-15) (4.822429e-18 1.852119e+01 2.624796e-16))
0.0131024     	((1.554069e+02 -1.434013e-14 2.399756e+03) (1.944970e+01 4.588300e-19 1.517801e+00)) ((-9.413916e-14 -8.947327e+02 -6.866917e-15) (4.967645e-18 1.867555e+01 2.633791e-16))
0.0134856     	((1.615142e+02 -1.433903e-14 2.265794e+03) (1.954821e+01 7.476904e-19 1.500104e+00)) ((-9.028111e-14 -7.969690e+02 -6.521594e-15) (5.089816e-18 1.878083e+01 2.660828e-16))
0.0138688     	((1.575233e+02 -1.439484e-14 2.284581e+03) (1.962752e+01 1.013405e-18 1.485919e+00)) ((-9.032138e-14 -8.150981e+02 -6.614371e-15) (5.392207e-18 1.886456e+01 2.691569e-16))
0.014252      	((1.570866e+02 -1.461210e-14 2.247131e+03) (1.971647e+01 1.081199e-18 1.456803e+00)) ((-8.963778e-14 -8.049727e+02 -6.762259e-15) (6.393665e-18 1.896405e+01 2.718185e-16))
0.0146352     	((1.665081e+02 -2.088407e-14 1.889772e+03) (1.980665e+01 1.166380e-18 1.466394e+00)) ((-7.773666e-14 -7.047554e+02 -8.756012e-15) (5.910644e-18 1.905325e+01 2.746170e-16))
0.0150184     	((1.553063e+02 -1.478836e-14 2.200948e+03) (1.986246e+01 1.196845e-18 1.460675e+00)) ((-8.718386e-14 -7.767030e+02 -6.707168e-15) (6.650258e-18 1.911031e+01 2.773992e-16))
0.0154016     	((1.488969e+02 -1.493676e-14 2.257636e+03) (1.995110e+01 1.422740e-18 1.445842e+00)) ((-8.852023e-14 -8.309874e+02 -7.006779e-15) (7.028044e-18 1.920677e+01 2.778181e-16))
0.0157848     	((1.540113e+02 -1.472351e-14 2.168213e+03) (1.998220e+01 1.448584e-18 1.437518e+00)) ((-8.645432e-14 -7.646193e+02 -6.748364e-15) (7.884009e-18 1.923888e+01 2.798138e-16))
0.016168      	((1.496963e+02 -1.486785e-14 2.195184e+03) (2.003368e+01 1.500468e-18 1.426084e+00)) ((-8.629489e-14 -7.858867e+02 -6.829243e-15) (8.378088e-18 1.929458e+01 2.793677e-16))
0.0165512     	((1.470987e+02 -1.488702e-14 2.201635e+03) (2.008590e+01 1.522684e-18 1.414299e+00)) ((-8.632496e-14 -7.961692e+02 -6.926001e-15) (8.735820e-18 1.935155e+01 2.777202e-16))
0.0169344     	((1.505994e+02 -1.497214e-14 2.139248e+03) (2.009279e+01 1.535903e-18 1.407349e+00)) ((-8.492058e-14 -7.557769e+02 -6.833077e-15) (9.137235e-18 1.935850e+01 2.775658e-16))
0.0173176     	((1.499696e+02 -2.082853e-14 1.872033e+03) (2.016143e+01 1.181597e-18 1.401633e+00)) ((-7.711786e-14 -7.044869e+02 -8.801335e-15) (9.494162e-18 1.943022e+01 2.744428e-16))
0.0177008     	((1.487941e+02 -1.526065e-14 2.110720e+03) (2.014280e+01 9.526406e-19 1.396516e+00)) ((-8.366186e-14 -7.442429e+02 -6.920078e-15) (1.028812e-17 1.940869e+01 2.742779e-16))
0.018084      	((1.451087e+02 -1.534214e-14 2.144418e+03) (2.017282e+01 8.322031e-19 1.385300e+00)) ((-8.430181e-14 -7.741687e+02 -7.068491e-15) (1.046777e-17 1.944152e+01 2.714873e-16))
0.0184672     	((1.456715e+02 -1.530790e-14 2.112068e+03) (2.016226e+01 7.649562e-19 1.374840e+00)) ((-8.325604e-14 -7.521035e+02 -7.004690e-15) (1.062466e-17 1.943155e+01 2.706162e-16))
0.0188504     	((1.444766e+02 -1.553041e-14 2.104715e+03) (2.017214e+01 7.935599e-19 1.359156e+00)) ((-8.264744e-14 -7.531888e+02 -7.072453e-15) (1.049430e-17 1.944616e+01 2.690660e-16))
0.0192336     	((1.441473e+02 -1.543841e-14 2.108363e+03) (2.016676e+01 5.461577e-19 1.344949e+00)) ((-8.269807e-14 -7.542768e+02 -7.035875e-15) (1.083856e-17 1.944510e+01 2.692199e-16))
0.0196168     	((1.433167e+02 -1.540485e-14 2.094338e+03) (2.017554e+01 2.654377e-19 1.328160e+00)) ((-8.229489e-14 -7.469084e+02 -7.061906e-15) (1.108104e-17 1.946041e+01 2.693332e-16))
0.02          	((1.432908e+02 -1.560565e-14 2.064389e+03) (2.016692e+01 1.469624e-20 1.312194e+00)) ((-8.152728e-14 -7.337078e+02 -7.118279e-15) (1.127187e-17 1.945751e+01 2.708261e-16))
0.0204        	((1.436680e+02 -1.860382e-14 1.817013e+03) (2.016945e+01 -2.063509e-19 1.298897e+00)) ((-7.539249e-14 -6.562238e+02 -8.036672e-15) (1.123696e-17 1.946578e+01 2.733569e-16))
0.0208        	((1.424596e+02 -1.572170e-14 2.054126e+03) (2.016042e+01 -3.519672e-19 1.281284e+00)) ((-8.119289e-14 -7.326138e+02 -7.184396e-15) (1.119285e-17 1.946406e+01 2.750744e-16))
0.0212        	((1.422519e+02 -1.553904e-14 2.044027e+03) (2.014694e+01 -5.084346e-19 1.263325e+00)) ((-8.087279e-14 -7.232565e+02 -7.134105e-15) (1.115951e-17 1.945825e+01 2.773828e-16))
0.0216        	((1.419651e+02 -1.553085e-14 2.036965e+03) (2.013722e+01 -6.257078e-19 1.245004e+00)) ((-8.058529e-14 -7.193211e+02 -7.132090e-15) (1.113143e-17 1.945673e+01 2.800444e-16))
0.022         	((1.416884e+02 -1.551943e-14 2.028298e+03) (2.012552e+01 -7.210201e-19 1.227522e+00)) ((-8.028200e-14 -7.150481e+02 -7.132569e-15) (1.119986e-17 1.945312e+01 2.829113e-16))
0.0224        	((1.413528e+02 -1.552383e-14 2.022561e+03) (2.010990e+01 -7.427918e-19 1.211399e+00)) ((-8.013253e-14 -7.125613e+02 -7.145317e-15) (1.133102e-17 1.944526e+01 2.861152e-16))
0.0228        	((1.406436e+02 -1.560754e-14 2.018894e+03) (2.009311e+01 -1.010123e-18 1.195022e+00)) ((-8.002408e-14 -7.130813e+02 -7.193006e-15) (1.177154e-17 1.943628e+01 2.895893e-16))
0.0232095     	((1.401643e+02 -1.534512e-14 1.985571e+03) (2.007168e+01 -1.092170e-18 1.184952e+00)) ((-7.882063e-14 -6.976119e+02 -7.133722e-15) (1.161526e-17 1.941999e+01 2.929184e-16))
0.023619      	((1.380023e+02 -1.504248e-14 1.791166e+03) (2.005442e+01 -1.030570e-18 1.171245e+00)) ((-7.132299e-14 -6.389199e+02 -7.083493e-15) (1.180121e-17 1.940949e+01 2.946041e-16))
0.0240286     	((1.401568e+02 -1.556690e-14 1.990944e+03) (2.003232e+01 -1.000151e-18 1.154226e+00)) ((-7.930077e-14 -6.983209e+02 -7.209095e-15) (1.246270e-17 1.939549e+01 2.985170e-16))
0.0244381     	((1.394465e+02 -1.558895e-14 1.991661e+03) (2.000834e+01 -9.523732e-19 1.139544e+00)) ((-7.932619e-14 -7.006558e+02 -7.238358e-15) (1.305037e-17 1.937868e+01 3.026955e-16))
0.0248476     	((1.390556e+02 -1.561316e-14 1.986953e+03) (1.998296e+01 -8.039690e-19 1.125734e+00)) ((-7.927929e-14 -6.983907e+02 -7.266246e-15) (1.358274e-17 1.936000e+01 3.068657e-16))
0.0252571     	((1.389442e+02 -1.560760e-14 1.983411e+03) (1.995419e+01 -6.722680e-19 1.112616e+00)) ((-7.931453e-14 -6.947779e+02 -7.275267e-15) (1.409474e-17 1.933756e+01 3.109782e-16))
0.0256667     	((1.389248e+02 -1.562087e-14 1.974695e+03) (1.992240e+01 -5.687324e-19 1.100406e+00)) ((-7.909277e-14 -6.902733e+02 -7.281353e-15) (1.453169e-17 1.931183e+01 3.148962e-16))
0.0260762     	((1.382340e+02 -1.564668e-14 1.974297e+03) (1.988796e+01 -7.462413e-19 1.088134e+00)) ((-7.893804e-14 -6.934255e+02 -7.303183e-15) (1.521335e-17 1.928327e+01 3.183805e-16))
0.0264857     	((1.357740e+02 -1.453061e-14 1.835588e+03) (1.985539e+01 -5.560139e-19 1.073834e+00)) ((-8.331882e-14 -6.424562e+02 -6.611038e-15) (1.519683e-17 1.925764e+01 3.204791e-16))
0.0268952     	((1.359974e+02 -1.459660e-14 1.848940e+03) (1.982679e+01 -2.114444e-19 1.064050e+00)) ((-8.260945e-14 -6.454133e+02 -6.672913e-15) (1.551956e-17 1.923503e+01 3.228629e-16))
0.0273048     	((1.377241e+02 -1.545822e-14 1.954875e+03) (1.979309e+01 -1.604860e-19 1.051685e+00)) ((-7.868317e-14 -6.826991e+02 -7.230585e-15) (1.580143e-17 1.920831e+01 3.262712e-16))
0.0277143     	((1.373292e+02 -1.545786e-14 1.958002e+03) (1.975585e+01 -1.028947e-19 1.040177e+00)) ((-7.868120e-14 -6.849194e+02 -7.247936e-15) (1.609946e-17 1.917768e+01 3.297995e-16))
0.0281238     	((1.371809e+02 -1.543934e-14 1.953501e+03) (1.971642e+01 -4.714270e-20 1.028453e+00)) ((-7.863473e-14 -6.825956e+02 -7.252507e-15) (1.636653e-17 1.914497e+01 3.333602e-16))
0.0285333     	((1.368705e+02 -1.533708e-14 1.945269e+03) (1.967417e+01 1.233325e-19 1.016155e+00)) ((-7.871768e-14 -6.778206e+02 -7.230272e-15) (1.646360e-17 1.910975e+01 3.370702e-16))
0.0289429     	((1.364242e+02 -1.532020e-14 1.953570e+03) (1.963195e+01 1.228601e-19 1.004027e+00)) ((-7.890616e-14 -6.825302e+02 -7.246283e-15) (1.667153e-17 1.907494e+01 3.405264e-16))
0.0293524     	((1.363405e+02 -1.531636e-14 1.948843e+03) (1.959506e+01 4.003705e-20 9.925258e-01)) ((-7.881718e-14 -6.802292e+02 -7.251241e-15) (1.690520e-17 1.904621e+01 3.436543e-16))
0.0297619     	((1.309476e+02 -1.529974e-14 1.744325e+03) (1.957190e+01 -6.501674e-20 9.767965e-01)) ((-8.444075e-14 -6.067383e+02 -6.886605e-15) (1.719669e-17 1.903415e+01 3.484235e-16))
0.0301714     	((1.344217e+02 -1.531707e-14 1.885787e+03) (1.954560e+01 -5.567083e-20 9.654836e-01)) ((-8.043679e-14 -6.580436e+02 -7.143566e-15) (1.735126e-17 1.901687e+01 3.527429e-16))
0.030581      	((1.361490e+02 -1.528617e-14 1.930335e+03) (1.951610e+01 -1.144358e-19 9.520420e-01)) ((-7.836255e-14 -6.698909e+02 -7.222130e-15) (1.725752e-17 1.899701e+01 3.558598e-16))
0.0309905     	((1.351201e+02 -1.526932e-14 1.934054e+03) (1.948055e+01 -9.198144e-20 9.397068e-01)) ((-7.864002e-14 -6.749188e+02 -7.216469e-15) (1.687915e-17 1.897002e+01 3.575746e-16))
0.0314        	((1.352135e+02 -1.527545e-14 1.937070e+03) (1.944227e+01 5.733168e-20 9.294762e-01)) ((-7.835022e-14 -6.754258e+02 -7.233192e-15) (1.618048e-17 1.893904e+01 3.577603e-16))
0.0318095     	((1.352837e+02 -1.527614e-14 1.929968e+03) (1.940304e+01 3.348705e-19 9.216870e-01)) ((-7.816548e-14 -6.714862e+02 -7.233719e-15) (1.520019e-17 1.890575e+01 3.563475e-16))
0.032219      	((1.349939e+02 -1.525591e-14 1.923552e+03) (1.935453e+01 5.787561e-19 9.150182e-01)) ((-7.828529e-14 -6.689529e+02 -7.220655e-15) (1.410762e-17 1.886188e+01 3.538526e-16))
0.0326286     	((1.347631e+02 -1.523079e-14 1.929115e+03) (1.929537e+01 5.198099e-19 9.084283e-01)) ((-7.839982e-14 -6.714168e+02 -7.220682e-15) (1.335226e-17 1.880703e+01 3.505299e-16))
0.0330381     	((1.262544e+02 -1.466957e-14 1.699876e+03) (1.923231e+01 4.330414e-19 9.029990e-01)) ((-7.950668e-14 -5.859567e+02 -6.896287e-15) (1.274586e-17 1.874727e+01 3.488757e-16))
0.0334476     	((1.337921e+02 -1.516306e-14 1.906638e+03) (1.916051e+01 2.459835e-19 8.977156e-01)) ((-7.857250e-14 -6.627931e+02 -7.188214e-15) (1.220499e-17 1.867806e+01 3.455570e-16))
0.0338571     	((1.341735e+02 -1.519938e-14 1.920513e+03) (1.909000e+01 3.770124e-20 8.943008e-01)) ((-7.843132e-14 -6.681984e+02 -7.216849e-15) (1.179498e-17 1.860946e+01 3.423254e-16))
0.0342667     	((1.342296e+02 -1.519714e-14 1.916249e+03) (1.902437e+01 -2.100593e-19 8.915511e-01)) ((-7.833293e-14 -6.656138e+02 -7.217331e-15) (1.159235e-17 1.854568e+01 3.395843e-16))
0.0346762     	((1.341269e+02 -1.516834e-14 1.906140e+03) (1.896266e+01 -5.717680e-19 8.874885e-01)) ((-7.833615e-14 -6.603784e+02 -7.200753e-15) (1.171963e-17 1.848650e+01 3.378481e-16))
0.0350857     	((1.335328e+02 -1.515089e-14 1.925526e+03) (1.890408e+01 -4.580612e-19 8.807961e-01)) ((-7.874478e-14 -6.709396e+02 -7.213194e-15) (1.171710e-17 1.843251e+01 3.381028e-16))
0.0354952     	((1.341609e+02 -1.514625e-14 1.913655e+03) (1.884578e+01 -3.778984e-19 8.746304e-01)) ((-7.842218e-14 -6.620937e+02 -7.204349e-15) (1.192083e-17 1.837805e+01 3.399326e-16))
0.0359048     	((1.337249e+02 -1.513110e-14 1.902791e+03) (1.878205e+01 -2.420264e-19 8.695387e-01)) ((-7.849128e-14 -6.580303e+02 -7.194073e-15) (1.234412e-17 1.831695e+01 3.435781e-16))
0.0363143     	((1.235019e+02 -1.554992e-14 1.685419e+03) (1.874614e+01 1.925753e-20 8.646547e-01)) ((-7.206945e-14 -5.758982e+02 -7.743785e-15) (1.297846e-17 1.828527e+01 3.455210e-16))
0.0367238     	((1.328996e+02 -1.518887e-14 1.896667e+03) (1.868403e+01 1.633356e-19 8.633535e-01)) ((-7.809577e-14 -6.571913e+02 -7.248467e-15) (1.392729e-17 1.822399e+01 3.519218e-16))
0.0371333     	((1.330122e+02 -1.512699e-14 1.896642e+03) (1.860398e+01 2.253592e-19 8.631838e-01)) ((-7.819283e-14 -6.564603e+02 -7.215833e-15) (1.523804e-17 1.814272e+01 3.621269e-16))
0.0375429     	((1.331792e+02 -1.507849e-14 1.906132e+03) (1.852201e+01 2.831601e-19 8.629942e-01)) ((-7.821161e-14 -6.599778e+02 -7.202690e-15) (1.659200e-17 1.805890e+01 3.735528e-16))
0.0379524     	((1.329894e+02 -1.503459e-14 1.910707e+03) (1.844801e+01 2.815137e-19 8.615607e-01)) ((-7.819487e-14 -6.621776e+02 -7.196905e-15) (1.786019e-17 1.798376e+01 3.844647e-16))
0.0383619     	((1.325992e+02 -1.502588e-14 1.905533e+03) (1.838740e+01 2.808823e-19 8.593042e-01)) ((-7.809075e-14 -6.606180e+02 -7.202178e-15) (1.872995e-17 1.792404e+01 3.945043e-16))
0.0387714     	((1.327817e+02 -1.504260e-14 1.904739e+03) (1.833505e+01 2.476060e-19 8.592543e-01)) ((-7.798967e-14 -6.596117e+02 -7.206194e-15) (1.961012e-17 1.787205e+01 4.038353e-16))
0.039181      	((1.318321e+02 -1.501179e-14 1.908356e+03) (1.827455e+01 3.668564e-19 8.586862e-01)) ((-7.822175e-14 -6.641942e+02 -7.213837e-15) (2.029675e-17 1.781123e+01 4.131283e-16))
0.0395905     	((1.203367e+02 -1.495727e-14 1.672868e+03) (1.820862e+01 4.690688e-19 8.580762e-01)) ((-7.614334e-14 -5.678960e+02 -7.318866e-15) (2.097357e-17 1.774463e+01 4.226064e-16))
0.04          	((1.314804e+02 -1.496598e-14 1.897475e+03) (1.813746e+01 7.927092e-19 8.582647e-01)) ((-7.814457e-14 -6.587743e+02 -7.206848e-15) (2.114242e-17 1.767197e+01 4.315491e-16))
0.0404255     	((1.316063e+02 -1.486183e-14 1.910457e+03) (1.804701e+01 1.145901e-18 8.590260e-01)) ((-7.846061e-14 -6.646909e+02 -7.183263e-15) (2.136384e-17 1.757858e+01 4.412982e-16))
0.0408511     	((1.312664e+02 -1.479608e-14 1.906405e+03) (1.795791e+01 1.333251e-18 8.592162e-01)) ((-7.854339e-14 -6.630657e+02 -7.169935e-15) (2.188239e-17 1.748668e+01 4.504103e-16))
0.0412766     	((1.312740e+02 -1.480318e-14 1.911993e+03) (1.788702e+01 1.526256e-18 8.598453e-01)) ((-7.860555e-14 -6.659815e+02 -7.177293e-15) (2.238450e-17 1.741442e+01 4.578774e-16))
0.0417021     	((1.310878e+02 -1.480815e-14 1.909915e+03) (1.782578e+01 1.705810e-18 8.608478e-01)) ((-7.858416e-14 -6.655293e+02 -7.183902e-15) (2.283395e-17 1.735227e+01 4.634534e-16))
0.0421277     	((1.307979e+02 -1.480484e-14 1.902308e+03) (1.776270e+01 1.782264e-18 8.619340e-01)) ((-7.847206e-14 -6.622534e+02 -7.188496e-15) (2.331385e-17 1.728761e+01 4.671149e-16))
0.0425532     	((1.306641e+02 -1.479318e-14 1.896134e+03) (1.769616e+01 1.739324e-18 8.590829e-01)) ((-7.834403e-14 -6.590697e+02 -7.188789e-15) (2.399864e-17 1.722103e+01 4.686778e-16))
0.0429787     	((1.189619e+02 -1.745989e-14 1.698391e+03) (1.762278e+01 1.701455e-18 8.604630e-01)) ((-6.966829e-14 -5.757891e+02 -9.026114e-15) (2.403824e-17 1.714540e+01 4.668475e-16))
0.0434043     	((1.305544e+02 -1.488927e-14 1.890991e+03) (1.754537e+01 1.629620e-18 8.610299e-01)) ((-7.786219e-14 -6.555783e+02 -7.262368e-15) (2.437931e-17 1.706541e+01 4.656316e-16))
0.0438298     	((1.309199e+02 -1.477679e-14 1.898535e+03) (1.746082e+01 1.685883e-18 8.606512e-01)) ((-7.809311e-14 -6.584924e+02 -7.202087e-15) (2.449455e-17 1.697824e+01 4.628324e-16))
0.0442553     	((1.310511e+02 -1.474279e-14 1.900128e+03) (1.736082e+01 1.797860e-18 8.587029e-01)) ((-7.810704e-14 -6.589406e+02 -7.182943e-15) (2.445069e-17 1.687678e+01 4.598218e-16))
0.0446809     	((1.300321e+02 -1.479089e-14 1.896609e+03) (1.728870e+01 1.525920e-18 8.593943e-01)) ((-7.799365e-14 -6.598826e+02 -7.243595e-15) (2.493021e-17 1.680013e+01 4.548273e-16))
0.0451064     	((1.306699e+02 -1.474543e-14 1.898979e+03) (1.719841e+01 1.350017e-18 8.561896e-01)) ((-7.802868e-14 -6.594116e+02 -7.199266e-15) (2.514683e-17 1.671000e+01 4.518251e-16))
0.0455319     	((1.303337e+02 -1.476955e-14 1.899238e+03) (1.710836e+01 1.221105e-18 8.527505e-01)) ((-7.796046e-14 -6.601018e+02 -7.222214e-15) (2.523378e-17 1.662012e+01 4.492087e-16))
0.0459574     	((1.274681e+02 -1.512119e-14 1.876493e+03) (1.706522e+01 1.329096e-18 8.411299e-01)) ((-7.709232e-14 -6.544479e+02 -7.501149e-15) (2.357928e-17 1.657934e+01 4.436936e-16))
0.046383      	((1.180310e+02 -2.120502e-14 1.723268e+03) (1.697918e+01 1.070447e-18 8.526499e-01)) ((-7.856058e-14 -5.842009e+02 -1.021230e-14) (2.573513e-17 1.648469e+01 4.431244e-16))
0.0468085     	((1.299203e+02 -1.475404e-14 1.909141e+03) (1.688401e+01 1.337800e-18 8.510591e-01)) ((-7.802880e-14 -6.659115e+02 -7.236942e-15) (2.565314e-17 1.638762e+01 4.420880e-16))
0.047234      	((1.279116e+02 -1.481926e-14 1.927221e+03) (1.686008e+01 1.247269e-18 8.542979e-01)) ((-7.838116e-14 -6.810367e+02 -7.341613e-15) (2.601069e-17 1.635683e+01 4.363418e-16))
0.0476596     	((1.288541e+02 -1.510479e-14 1.900208e+03) (1.676284e+01 1.070049e-18 8.509342e-01)) ((-7.802545e-14 -6.629557e+02 -7.418344e-15) (2.641033e-17 1.625876e+01 4.343780e-16))
0.0480851     	((1.287730e+02 -1.491091e-14 1.906278e+03) (1.665697e+01 1.092173e-18 8.453012e-01)) ((-7.804131e-14 -6.670458e+02 -7.343897e-15) (2.711305e-17 1.615275e+01 4.329699e-16))
0.0485106     	((1.289760e+02 -1.498376e-14 1.899792e+03) (1.654214e+01 1.231773e-18 8.400688e-01)) ((-7.793592e-14 -6.626012e+02 -7.363956e-15) (2.744623e-17 1.603771e+01 4.326543e-16))
0.0489362     	((1.268253e+02 -1.504214e-14 1.929732e+03) (1.652869e+01 5.939429e-19 8.389274e-01)) ((-7.859437e-14 -6.849568e+02 -7.467045e-15) (2.874122e-17 1.601979e+01 4.263338e-16))
0.0493617     	((1.260957e+02 -1.633060e-14 1.862322e+03) (1.644129e+01 1.694142e-18 8.119551e-01)) ((-7.693493e-14 -6.464338e+02 -8.074556e-15) (3.066425e-17 1.594623e+01 4.280250e-16))
0.0497872     	((1.171529e+02 -2.034249e-14 1.733146e+03) (1.634731e+01 5.921759e-19 8.153351e-01)) ((-6.370664e-14 -5.857419e+02 -1.100545e-14) (3.035407e-17 1.584817e+01 4.295296e-16))
0.0502128     	((1.280477e+02 -1.517564e-14 1.919968e+03) (1.626778e+01 -1.586071e-19 8.080157e-01)) ((-7.862913e-14 -6.755534e+02 -7.459704e-15) (3.173294e-17 1.576918e+01 4.285146e-16))
0.0506383     	((1.287276e+02 -1.520022e-14 1.911619e+03) (1.616451e+01 -5.577689e-19 7.954358e-01)) ((-7.854155e-14 -6.689176e+02 -7.437598e-15) (3.281969e-17 1.567073e+01 4.297214e-16))
0.0510638     	((1.266480e+02 -1.557403e-14 1.912765e+03) (1.610040e+01 -1.549521e-18 7.891101e-01)) ((-7.815125e-14 -6.743052e+02 -7.714780e-15) (3.444835e-17 1.560572e+01 4.281304e-16))
0.0514894     	((1.278352e+02 -1.538531e-14 1.910393e+03) (1.597038e+01 -1.788095e-18 7.787026e-01)) ((-7.829041e-14 -6.700790e+02 -7.569490e-15) (3.506317e-17 1.547843e+01 4.304079e-16))
0.0519149     	((1.235227e+02 -1.558624e-14 1.956823e+03) (1.598397e+01 -2.927819e-18 7.734475e-01)) ((-7.912385e-14 -7.068941e+02 -7.823642e-15) (3.655956e-17 1.548942e+01 4.226780e-16))
0.0523404     	((1.268398e+02 -1.566171e-14 1.912971e+03) (1.586616e+01 -3.350847e-18 7.591155e-01)) ((-7.777918e-14 -6.732996e+02 -7.752713e-15) (3.713206e-17 1.537723e+01 4.234121e-16))
0.052766      	((1.111787e+02 -2.133656e-14 1.694827e+03) (1.575136e+01 -3.696455e-18 7.456427e-01)) ((-6.001519e-14 -5.687384e+02 -1.184196e-14) (3.737555e-17 1.526760e+01 4.258600e-16))
0.0531915     	((1.257057e+02 -1.559237e-14 1.940571e+03) (1.566885e+01 -4.484429e-18 7.312419e-01)) ((-7.816529e-14 -6.919257e+02 -7.759521e-15) (3.835319e-17 1.518946e+01 4.242147e-16))
0.053617      	((1.269461e+02 -1.572345e-14 1.923744e+03) (1.554638e+01 -4.776740e-18 7.090492e-01)) ((-7.723825e-14 -6.786803e+02 -7.793605e-15) (3.883380e-17 1.507786e+01 4.259698e-16))
0.0540426     	((1.269602e+02 -1.584802e-14 1.913395e+03) (1.542124e+01 -5.059839e-18 6.863100e-01)) ((-7.657096e-14 -6.723738e+02 -7.878220e-15) (3.883624e-17 1.496463e+01 4.276943e-16))
0.0544681     	((1.216432e+02 -1.609980e-14 1.966278e+03) (1.545462e+01 -6.550361e-18 6.696008e-01)) ((-7.738860e-14 -7.150054e+02 -8.208531e-15) (3.991839e-17 1.500426e+01 4.175131e-16))
0.0548936     	((1.262192e+02 -1.577086e-14 1.928717e+03) (1.534702e+01 -7.155398e-18 6.469114e-01)) ((-7.712810e-14 -6.831233e+02 -7.852121e-15) (4.013271e-17 1.490806e+01 4.154375e-16))
0.0553191     	((1.262232e+02 -1.597277e-14 1.913215e+03) (1.523856e+01 -7.482824e-18 6.179756e-01)) ((-7.632689e-14 -6.739184e+02 -7.977083e-15) (3.958994e-17 1.481626e+01 4.127319e-16))
0.0557447     	((1.237077e+02 -1.644664e-14 1.914490e+03) (1.511750e+01 -7.290455e-18 5.879190e-01)) ((-7.494631e-14 -6.786974e+02 -8.390720e-15) (3.795482e-17 1.471321e+01 4.102232e-16))
0.0561702     	((1.084498e+02 -2.144713e-14 1.732117e+03) (1.500495e+01 -8.191152e-18 5.510760e-01)) ((-5.396721e-14 -5.895597e+02 -1.260130e-14) (3.741204e-17 1.462306e+01 4.048220e-16))
0.0565957     	((1.241155e+02 -1.587273e-14 1.953815e+03) (1.491271e+01 -9.452895e-18 5.184581e-01)) ((-7.705273e-14 -7.018581e+02 -8.016428e-15) (3.731991e-17 1.454932e+01 3.982194e-16))
0.0570213     	((1.241631e+02 -1.591614e-14 1.953882e+03) (1.480106e+01 -1.014175e-17 4.816327e-01)) ((-7.674891e-14 -7.011839e+02 -8.053065e-15) (3.663227e-17 1.445955e+01 3.931917e-16))
0.0574468     	((1.241020e+02 -1.584031e-14 1.959325e+03) (1.469420e+01 -1.086797e-17 4.442904e-01)) ((-7.693197e-14 -7.045996e+02 -8.016357e-15) (3.609950e-17 1.437439e+01 3.880613e-16))
0.0578723     	((1.233548e+02 -1.595614e-14 1.960042e+03) (1.459159e+01 -1.144933e-17 4.061063e-01)) ((-7.670413e-14 -7.064690e+02 -8.110154e-15) (3.552560e-17 1.429350e+01 3.828186e-16))
0.0582979     	((1.231722e+02 -1.595493e-14 1.962257e+03) (1.449440e+01 -1.173304e-17 3.675935e-01)) ((-7.667666e-14 -7.080985e+02 -8.123617e-15) (3.449715e-17 1.421822e+01 3.778114e-16))
0.0587234     	((1.213528e+02 -1.651397e-14 1.945448e+03) (1.440478e+01 -1.131795e-17 3.271739e-01)) ((-7.453109e-14 -7.004389e+02 -8.589040e-15) (3.234555e-17 1.415199e+01 3.737295e-16))