# Forces      
# CofR        : (0.000000e+00 0.000000e+00 -1.000000e+00)
# Time        forces(pressure viscous)	moments(pressure viscous)
0             	((5.684342e-14 -3.955919e-14 9.094947e-13) (9.246611e+00 2.811313e-18 8.807672e-01)) ((-5.701534e-14 0.000000e+00 -2.905862e-14) (-1.402268e-17 8.812188e+00 1.125516e-16))
1.19976e-05   	((1.999521e+05 1.552290e-12 6.522205e+05) (9.314175e+00 3.093702e-18 8.202499e-01)) ((-2.599221e-11 2.655469e+04 3.556698e-12) (-6.373072e-18 8.897355e+00 1.127699e-16))
2.63878e-05   	((3.110274e+04 2.341695e-13 1.037717e+05) (9.326841e+00 3.018286e-18 8.126380e-01)) ((-3.951089e-12 2.896166e+03 5.499308e-13) (-4.916975e-18 8.904309e+00 1.128423e-16))
4.36511e-05   	((1.765486e+04 1.161006e-13 6.033537e+04) (9.350838e+00 3.030016e-18 8.116370e-01)) ((-2.268811e-12 1.564782e+03 3.086008e-13) (-4.183753e-18 8.923881e+00 1.131545e-16))
6.43527e-05   	((1.202636e+04 8.085827e-14 4.065714e+04) (9.384438e+00 3.029182e-18 8.115006e-01)) ((-1.586612e-12 9.572184e+02 2.040139e-13) (-3.597037e-18 8.954538e+00 1.136908e-16))
8.91792e-05   	((8.814225e+03 5.906207e-14 2.830041e+04) (9.423050e+00 3.092479e-18 8.114622e-01)) ((-1.171380e-12 9.197529e+02 1.412592e-13) (-3.440570e-18 8.990843e+00 1.143946e-16))
0.000118941   	((6.336382e+03 4.091047e-14 2.217997e+04) (9.466827e+00 3.160551e-18 8.118113e-01)) ((-9.039495e-13 -1.114926e+02 9.962866e-14) (-3.208958e-18 9.033088e+00 1.152147e-16))
0.000154634   	((5.052088e+03 4.793112e-14 2.273213e+04) (9.520067e+00 3.447362e-18 8.126773e-01)) ((-9.418944e-13 -2.931077e+03 7.306806e-14) (-2.697745e-18 9.084553e+00 1.162716e-16))
0.000197405   	((4.101483e+03 1.967467e-14 1.240799e+04) (9.581096e+00 3.444886e-18 8.149347e-01)) ((-5.653355e-13 4.276005e+02 5.472371e-14) (-2.484635e-18 9.143283e+00 1.172681e-16))
0.000248707   	((3.228058e+03 1.151335e-14 9.583347e+03) (9.652801e+00 3.441635e-18 8.180406e-01)) ((-4.471573e-13 3.786263e+02 4.017165e-14) (-2.318404e-18 9.212485e+00 1.184592e-16))
0.000310237   	((2.930328e+03 -3.213432e-14 1.170006e+04) (9.741478e+00 3.557256e-18 8.221403e-01)) ((-4.477128e-13 -1.878680e+03 3.608183e-15) (-2.174422e-18 9.298764e+00 1.194323e-16))
0.000383982   	((2.443100e+03 1.120788e-15 6.482373e+03) (9.846246e+00 3.854121e-18 8.266388e-01)) ((-3.337641e-13 3.551678e+02 2.244824e-14) (-2.304404e-18 9.400206e+00 1.214691e-16))
0.000472342   	((2.052053e+03 -6.442901e-15 6.025356e+03) (9.974217e+00 3.820298e-18 8.311846e-01)) ((-2.899894e-13 -8.274334e+01 1.273141e-14) (-2.252212e-18 9.524330e+00 1.238597e-16))
0.000577897   	((2.041756e+03 -2.757274e-14 6.003444e+03) (1.013435e+01 3.244121e-18 8.383816e-01)) ((-2.584645e-13 -6.195730e+02 4.084771e-16) (-2.612646e-18 9.679639e+00 1.265167e-16))
0.000704014   	((1.966787e+03 -5.903269e-15 4.024152e+03) (1.033479e+01 3.088554e-18 8.446081e-01)) ((-2.561618e-13 4.225481e+02 1.043058e-14) (-2.529429e-18 9.874602e+00 1.299953e-16))
0.000854764   	((5.264677e+03 1.103109e-14 5.679070e+03) (1.065072e+01 3.112127e-18 8.255055e-01)) ((-6.104868e-13 1.642318e+03 2.456491e-14) (-2.241427e-18 1.018805e+01 1.354918e-16))
0.00103538    	((1.486867e+03 -1.738545e-14 3.390360e+03) (1.098275e+01 2.627834e-18 8.383452e-01)) ((-2.589882e-13 -3.363600e+02 -2.520265e-15) (2.142021e-19 1.051157e+01 1.405612e-16))
0.00125089    	((8.803731e+02 -1.311318e-14 2.975305e+03) (1.139815e+01 2.635403e-18 8.553867e-01)) ((-1.541002e-13 -2.209376e+02 -1.081523e-15) (5.538122e-19 1.091505e+01 1.481181e-16))
0.00150772    	((8.561947e+02 -1.939671e-14 2.760042e+03) (1.192185e+01 2.667750e-18 8.793990e-01)) ((-1.512995e-13 -5.625209e+02 -6.302080e-15) (3.336299e-19 1.142731e+01 1.587369e-16))
0.00181593    	((7.269993e+02 -1.827435e-14 2.258643e+03) (1.254169e+01 2.450490e-18 9.195070e-01)) ((-1.262444e-13 -4.523977e+02 -7.432532e-15) (-4.455723e-19 1.203296e+01 1.685900e-16))
0.00217961    	((5.438498e+02 -1.504892e-14 2.019420e+03) (1.324567e+01 2.343095e-18 9.591179e-01)) ((-1.067277e-13 -2.039829e+02 -5.181794e-15) (-1.220947e-19 1.272058e+01 1.793263e-16))
0.00261425    	((5.177243e+02 -2.016649e-14 1.748306e+03) (1.403939e+01 2.511646e-18 1.015016e+00)) ((-1.137558e-13 -3.491163e+02 -8.945580e-15) (2.268046e-18 1.349104e+01 1.905578e-16))
0.0031256     	((3.766473e+02 -1.144439e-14 2.064910e+03) (1.490488e+01 2.478358e-18 1.064447e+00)) ((-8.467822e-14 -5.274122e+02 -1.048105e-15) (-3.627361e-19 1.433669e+01 2.058359e-16))
0.00372826    	((3.633241e+02 -1.100956e-14 1.557016e+03) (1.583696e+01 1.616486e-18 1.117976e+00)) ((-9.337787e-14 -3.836973e+02 -6.524703e-16) (3.261339e-19 1.524869e+01 2.222808e-16))
0.00443572    	((2.889362e+02 -1.035359e-14 1.641914e+03) (1.681548e+01 1.664114e-18 1.171018e+00)) ((-8.623443e-14 -4.351016e+02 -2.047290e-15) (-6.681218e-19 1.620776e+01 2.405657e-16))
0.0052549     	((2.833572e+02 -1.479733e-14 1.577315e+03) (1.782828e+01 1.768309e-18 1.225940e+00)) ((-8.246091e-14 -4.139216e+02 -5.492557e-15) (-4.676382e-19 1.719697e+01 2.593235e-16))
0.0062379     	((2.089593e+02 -1.283683e-14 2.275210e+03) (1.888912e+01 7.901965e-19 1.301649e+00)) ((-1.039628e-13 -9.145847e+02 -7.155112e-15) (2.977121e-18 1.821708e+01 2.738130e-16))
0.00738474    	((1.855061e+02 -2.000256e-14 1.306684e+03) (1.990315e+01 2.749279e-18 1.336104e+00)) ((-5.993036e-14 -4.168908e+02 -1.173979e-14) (-3.582137e-18 1.922376e+01 2.900040e-16))
0.00864627    	((1.066954e+02 -1.792534e-14 1.856619e+03) (2.072395e+01 7.816908e-19 1.311837e+00)) ((-7.733494e-14 -9.474684e+02 -1.329534e-14) (-2.391072e-18 2.009825e+01 2.944559e-16))
0.00967843    	((1.678023e+02 -1.594432e-14 1.106355e+03) (2.130662e+01 7.122464e-19 1.303650e+00)) ((-5.979347e-14 -2.765774e+02 -8.680955e-15) (-2.137578e-18 2.070360e+01 3.003172e-16))
0.0107106     	((1.426893e+02 -1.513373e-14 1.020948e+03) (2.178945e+01 8.777867e-19 1.310857e+00)) ((-6.424333e-14 -2.923840e+02 -8.462985e-15) (5.932914e-19 2.120067e+01 3.066716e-16))
0.0117427     	((9.248089e+01 -1.564758e-14 2.037222e+03) (2.219045e+01 9.379339e-19 1.296791e+00)) ((-8.170880e-14 -9.652245e+02 -1.062537e-14) (1.977878e-18 2.162538e+01 3.130582e-16))
0.0126602     	((1.276180e+02 -1.565834e-14 1.775131e+03) (2.250331e+01 1.211209e-18 1.288978e+00)) ((-7.766924e-14 -7.790246e+02 -9.861416e-15) (3.171559e-18 2.195611e+01 3.184101e-16))
0.0134757     	((1.303110e+02 -1.624916e-14 1.231895e+03) (2.274158e+01 1.322760e-18 1.289053e+00)) ((-6.744204e-14 -4.596323e+02 -9.469131e-15) (4.683243e-18 2.220644e+01 3.236309e-16))
0.0142913     	((1.202098e+02 -1.612502e-14 1.336479e+03) (2.290000e+01 1.640747e-18 1.273316e+00)) ((-6.298252e-14 -4.939294e+02 -9.585248e-15) (5.562910e-18 2.238270e+01 3.268360e-16))
0.0151068     	((1.181156e+02 -1.616976e-14 1.311572e+03) (2.305608e+01 1.845389e-18 1.251159e+00)) ((-6.235645e-14 -4.836205e+02 -9.625802e-15) (6.348955e-18 2.255602e+01 3.292396e-16))
0.0159223     	((1.193925e+02 -1.610386e-14 1.196128e+03) (2.322955e+01 1.727936e-18 1.241891e+00)) ((-6.165002e-14 -4.367214e+02 -9.520082e-15) (6.683803e-18 2.274260e+01 3.319542e-16))
0.0167379     	((1.165270e+02 -1.621784e-14 1.230729e+03) (2.337713e+01 1.868588e-18 1.225826e+00)) ((-6.267190e-14 -4.572154e+02 -9.591457e-15) (6.746861e-18 2.290755e+01 3.338786e-16))
0.0175534     	((1.179001e+02 -1.620024e-14 1.275462e+03) (2.350524e+01 1.889480e-18 1.201458e+00)) ((-6.179871e-14 -4.718440e+02 -9.643416e-15) (7.228073e-18 2.305746e+01 3.348918e-16))
0.0183689     	((1.148418e+02 -1.637109e-14 1.247251e+03) (2.360362e+01 1.864863e-18 1.183988e+00)) ((-6.048317e-14 -4.685512e+02 -9.847728e-15) (7.040442e-18 2.317331e+01 3.351814e-16))
0.0191845     	((8.741752e+01 -1.667069e-14 1.527833e+03) (2.366624e+01 1.758447e-18 1.182430e+00)) ((-6.823509e-14 -7.096363e+02 -1.091302e-14) (7.355110e-18 2.323943e+01 3.349177e-16))
0.02          	((9.688833e+01 -1.636637e-14 1.524782e+03) (2.370878e+01 1.628962e-18 1.163878e+00)) ((-6.769016e-14 -6.730249e+02 -1.047632e-14) (7.653970e-18 2.329844e+01 3.349204e-16))
0.0208333     	((9.849220e+01 -1.639681e-14 1.462963e+03) (2.373964e+01 1.534633e-18 1.139844e+00)) ((-6.626412e-14 -6.291792e+02 -1.034811e-14) (8.074151e-18 2.334767e+01 3.355018e-16))
0.0216667     	((1.091150e+02 -1.650128e-14 1.218410e+03) (2.375159e+01 1.497567e-18 1.127494e+00)) ((-6.201865e-14 -4.830616e+02 -9.987696e-15) (8.822280e-18 2.336803e+01 3.371856e-16))
0.0225        	((9.879431e+01 -1.648814e-14 1.393472e+03) (2.379425e+01 1.819342e-18 1.100871e+00)) ((-6.497424e-14 -5.918636e+02 -1.030829e-14) (8.606808e-18 2.343088e+01 3.370171e-16))
0.0233333     	((1.122742e+02 -1.637571e-14 1.293517e+03) (2.379312e+01 1.986815e-18 1.075211e+00)) ((-6.251556e-14 -5.093907e+02 -9.902104e-15) (8.652503e-18 2.344668e+01 3.386092e-16))
0.0241667     	((1.005399e+02 -1.646708e-14 1.387277e+03) (2.378051e+01 2.003477e-18 1.044844e+00)) ((-6.457153e-14 -5.832016e+02 -1.024352e-14) (8.903919e-18 2.345285e+01 3.400955e-16))
0.025         	((1.041307e+02 -1.774805e-14 1.227901e+03) (2.375377e+01 1.938059e-18 1.020951e+00)) ((-5.969431e-14 -5.020822e+02 -1.085205e-14) (8.742220e-18 2.343929e+01 3.406702e-16))
0.0258333     	((1.067606e+02 -1.661298e-14 1.276127e+03) (2.369464e+01 2.280677e-18 1.003900e+00)) ((-6.174393e-14 -5.079962e+02 -1.007494e-14) (8.982593e-18 2.338390e+01 3.436671e-16))
0.0266667     	((9.202411e+01 -1.669953e-14 1.528861e+03) (2.368940e+01 2.242595e-18 9.645335e-01)) ((-6.736187e-14 -6.889378e+02 -1.065396e-14) (8.608529e-18 2.340291e+01 3.433672e-16))
0.0275        	((1.034804e+02 -1.662103e-14 1.348408e+03) (2.362689e+01 2.089513e-18 9.328646e-01)) ((-6.323182e-14 -5.590876e+02 -1.018118e-14) (8.502229e-18 2.335525e+01 3.456044e-16))
0.0283333     	((9.439701e+01 -1.973435e-14 1.282754e+03) (2.355265e+01 1.541444e-18 9.036411e-01)) ((-6.397169e-14 -5.480200e+02 -1.168670e-14) (9.410599e-18 2.329279e+01 3.495256e-16))
0.0291667     	((1.060771e+02 -1.699653e-14 1.304801e+03) (2.346254e+01 1.571872e-18 8.814405e-01)) ((-6.253162e-14 -5.310797e+02 -1.025689e-14) (9.382652e-18 2.320580e+01 3.531875e-16))
0.03          	((9.128160e+01 -1.703080e-14 1.470483e+03) (2.342138e+01 1.304711e-18 8.411656e-01)) ((-6.607768e-14 -6.514216e+02 -1.070268e-14) (8.799612e-18 2.318441e+01 3.531632e-16))
0.0308333     	((1.043415e+02 -1.692458e-14 1.349949e+03) (2.333518e+01 1.303454e-18 8.125592e-01)) ((-6.345445e-14 -5.626445e+02 -1.031672e-14) (8.871084e-18 2.310528e+01 3.550233e-16))
0.0316667     	((8.760513e+01 -2.005225e-14 1.283351e+03) (2.327250e+01 1.010038e-18 7.854394e-01)) ((-5.694609e-14 -5.579794e+02 -1.253261e-14) (7.898893e-18 2.305097e+01 3.562627e-16))
0.0325        	((9.888002e+01 -1.719531e-14 1.415474e+03) (2.321178e+01 7.308909e-19 7.559845e-01)) ((-6.433659e-14 -6.106355e+02 -1.066541e-14) (7.265396e-18 2.300041e+01 3.548234e-16))
0.0333333     	((9.253749e+01 -1.728236e-14 1.418701e+03) (2.314654e+01 6.645207e-19 7.285198e-01)) ((-6.428548e-14 -6.182939e+02 -1.077300e-14) (6.693540e-18 2.294377e+01 3.535250e-16))
0.0341667     	((9.645969e+01 -1.734750e-14 1.430345e+03) (2.310153e+01 3.404196e-19 6.939399e-01)) ((-6.452654e-14 -6.243767e+02 -1.078940e-14) (7.219012e-18 2.291358e+01 3.521525e-16))
0.035         	((8.307280e+01 -2.011296e-14 1.311804e+03) (2.304631e+01 3.784379e-19 6.822233e-01)) ((-5.662258e-14 -5.826293e+02 -1.281161e-14) (5.983170e-18 2.285954e+01 3.511819e-16))
0.0357143     	((9.122685e+01 -1.752059e-14 1.468112e+03) (2.299552e+01 4.225759e-19 6.647547e-01)) ((-6.505559e-14 -6.529543e+02 -1.102391e-14) (5.710422e-18 2.281384e+01 3.496873e-16))
0.0364286     	((8.989949e+01 -1.769525e-14 1.457882e+03) (2.294365e+01 1.318070e-19 6.457058e-01)) ((-6.462107e-14 -6.506986e+02 -1.115546e-14) (5.911869e-18 2.277021e+01 3.484939e-16))
0.0371429     	((8.936593e+01 -1.777010e-14 1.463191e+03) (2.289709e+01 1.988121e-19 6.138858e-01)) ((-6.452507e-14 -6.530487e+02 -1.120878e-14) (6.944485e-18 2.274211e+01 3.486998e-16))
0.0378571     	((7.764723e+01 -2.156390e-14 1.294144e+03) (2.284120e+01 3.772985e-19 6.074096e-01)) ((-5.032917e-14 -5.835134e+02 -1.424535e-14) (4.883716e-18 2.268990e+01 3.467538e-16))
0.0385714     	((8.782550e+01 -1.783312e-14 1.483700e+03) (2.276786e+01 4.452375e-19 5.878372e-01)) ((-6.470706e-14 -6.662530e+02 -1.132022e-14) (4.894555e-18 2.262885e+01 3.482356e-16))
0.0392857     	((8.814635e+01 -1.792761e-14 1.487971e+03) (2.265123e+01 8.545476e-19 5.703691e-01)) ((-6.465669e-14 -6.691497e+02 -1.141204e-14) (5.724787e-18 2.252270e+01 3.565813e-16))
0.04          	((8.600447e+01 -1.802618e-14 1.497701e+03) (2.242468e+01 1.005316e-19 5.482010e-01)) ((-6.479724e-14 -6.768680e+02 -1.150677e-14) (7.864872e-18 2.230831e+01 3.832503e-16))
0.0407692     	((7.522544e+01 -2.267180e-14 1.326537e+03) (2.224986e+01 3.227577e-19 5.355609e-01)) ((-5.684631e-14 -5.979699e+02 -1.449292e-14) (7.971865e-18 2.214449e+01 3.997683e-16))
0.0415705     	((8.474943e+01 -1.832480e-14 1.503593e+03) (2.211818e+01 -1.259802e-19 5.077046e-01)) ((-6.478645e-14 -6.835679e+02 -1.170563e-14) (7.258640e-18 2.203492e+01 4.054216e-16))
0.0423718     	((8.514867e+01 -1.821936e-14 1.519846e+03) (2.194084e+01 -9.757822e-19 4.739035e-01)) ((-6.501552e-14 -6.914434e+02 -1.167753e-14) (5.796515e-18 2.188487e+01 3.994051e-16))
0.0431731     	((8.200176e+01 -1.849088e-14 1.519424e+03) (2.175477e+01 -1.531764e-18 4.250417e-01)) ((-6.471177e-14 -6.955578e+02 -1.190671e-14) (2.918364e-18 2.173776e+01 3.863949e-16))
0.0439744     	((6.969109e+01 -2.098478e-14 1.364137e+03) (2.164584e+01 -2.043429e-18 3.854312e-01)) ((-6.295181e-14 -6.230080e+02 -1.323248e-14) (2.214217e-18 2.166595e+01 3.787658e-16))
0.0447756     	((7.280169e+01 -1.854785e-14 1.508693e+03) (2.158373e+01 -2.347394e-18 4.175282e-01)) ((-6.779431e-14 -6.862494e+02 -1.168696e-14) (5.759148e-18 2.156672e+01 3.738330e-16))
0.0455769     	((7.928482e+01 -1.857101e-14 1.498448e+03) (2.154434e+01 -3.354666e-18 3.991342e-01)) ((-6.570668e-14 -6.782303e+02 -1.179976e-14) (7.624141e-18 2.153865e+01 3.669943e-16))
0.046336      	((5.029334e+01 -1.826307e-14 1.360553e+03) (2.148940e+01 -1.398148e-18 3.816609e-01)) ((-6.650788e-14 -6.310279e+02 -1.168146e-14) (6.540104e-18 2.149494e+01 3.671016e-16))
0.0470951     	((6.371073e+01 -1.851177e-14 1.598450e+03) (2.136630e+01 -1.197400e-18 3.641982e-01)) ((-7.024799e-14 -7.512624e+02 -1.195847e-14) (6.968958e-18 2.138231e+01 3.746817e-16))
0.0479017     	((7.009935e+01 -1.859313e-14 1.545129e+03) (2.117619e+01 -6.727101e-19 3.503839e-01)) ((-6.901208e-14 -7.118697e+02 -1.187953e-14) (7.831455e-18 2.119819e+01 3.960321e-16))
0.0486578     	((6.820982e+01 -1.873924e-14 1.507060e+03) (2.109777e+01 -7.495324e-19 3.475269e-01)) ((-6.843439e-14 -6.896856e+02 -1.192796e-14) (1.022670e-17 2.111545e+01 4.020021e-16))
0.049414      	((4.889273e+01 -1.674514e-14 1.276400e+03) (2.104598e+01 3.086261e-19 3.453397e-01)) ((-6.324004e-14 -5.720342e+02 -1.088325e-14) (9.062425e-18 2.106126e+01 4.034500e-16))
0.0501701     	((6.796226e+01 -1.861797e-14 1.548604e+03) (2.099113e+01 3.489452e-19 3.303313e-01)) ((-6.908204e-14 -7.112266e+02 -1.186249e-14) (8.948826e-18 2.101412e+01 4.067857e-16))
0.0509263     	((6.807988e+01 -1.850363e-14 1.544802e+03) (2.094455e+01 -9.481296e-20 3.084439e-01)) ((-6.891938e-14 -7.065494e+02 -1.176216e-14) (9.157112e-18 2.098105e+01 4.107594e-16))
0.0516824     	((3.440914e+01 -1.939365e-14 1.194590e+03) (2.090930e+01 6.081594e-19 2.905196e-01)) ((-6.838000e-14 -5.252280e+02 -1.188618e-14) (7.821636e-18 2.095743e+01 4.124954e-16))
0.0524386     	((6.207762e+01 -1.861265e-14 1.504485e+03) (2.086984e+01 4.090725e-19 2.656926e-01)) ((-6.899084e-14 -6.870877e+02 -1.175337e-14) (7.934257e-18 2.093512e+01 4.198781e-16))
0.0531947     	((6.116295e+01 -1.862828e-14 1.504773e+03) (2.075269e+01 4.682065e-19 2.384720e-01)) ((-6.904174e-14 -6.885919e+02 -1.175937e-14) (7.712436e-18 2.083612e+01 4.311035e-16))
0.0539508     	((5.284755e+01 -1.897672e-14 1.431735e+03) (2.059286e+01 1.459974e-18 2.163682e-01)) ((-7.141245e-14 -6.475816e+02 -1.165517e-14) (7.154921e-18 2.068909e+01 4.451821e-16))
0.054707      	((3.112096e+01 -1.987116e-14 1.237852e+03) (2.052323e+01 6.665300e-19 2.024667e-01)) ((-7.733717e-14 -5.424093e+02 -1.142965e-14) (9.160594e-18 2.062614e+01 4.564790e-16))
0.0554631     	((5.693304e+01 -1.861349e-14 1.532418e+03) (2.046750e+01 4.506904e-19 1.812715e-01)) ((-7.072197e-14 -6.999878e+02 -1.174065e-14) (1.033573e-17 2.058317e+01 4.620645e-16))
0.0562193     	((5.583237e+01 -1.864995e-14 1.518379e+03) (2.041341e+01 3.093012e-19 1.607318e-01)) ((-7.107695e-14 -6.901696e+02 -1.171288e-14) (1.168423e-17 2.054170e+01 4.659633e-16))
0.0569754     	((9.009542e+00 -1.948417e-14 1.069085e+03) (2.037021e+01 4.912498e-19 1.447354e-01)) ((-6.065562e-14 -4.405029e+02 -1.290046e-14) (1.337393e-17 2.050819e+01 4.720156e-16))
0.0577316     	((5.323418e+01 -1.895116e-14 1.486068e+03) (2.030752e+01 5.212107e-19 1.239998e-01)) ((-7.231261e-14 -6.698964e+02 -1.169291e-14) (1.531907e-17 2.045881e+01 4.736378e-16))
0.0584877     	((4.777607e+01 -1.961229e-14 1.439784e+03) (2.023680e+01 1.168744e-18 1.051703e-01)) ((-7.306601e-14 -6.414472e+02 -1.202635e-14) (1.597357e-17 2.040004e+01 4.754388e-16))
0.0592439     	((-9.375672e+00 -2.709334e-14 9.453185e+02) (2.017985e+01 1.296741e-18 9.849647e-02)) ((-6.003069e-14 -3.621136e+02 -1.818327e-14) (1.638246e-17 2.034563e+01 4.752355e-16))
0.06          	((4.292094e+01 -2.014478e-14 1.436802e+03) (2.011410e+01 1.471379e-18 8.761263e-02)) ((-7.509293e-14 -6.390055e+02 -1.226474e-14) (1.739665e-17 2.028501e+01 4.752927e-16))
0.0607692     	((-5.860721e+01 -2.936346e-14 1.626155e+03) (1.997835e+01 1.106770e-18 9.381692e-02)) ((-1.100459e-13 -7.861086e+02 -1.773429e-14) (1.808071e-17 2.014066e+01 4.749578e-16))
0.0615385     	((-5.311923e+01 -3.909135e-14 8.924668e+02) (1.995002e+01 1.412356e-18 1.072856e-01)) ((-6.414006e-14 -3.216825e+02 -2.713007e-14) (1.866425e-17 2.009885e+01 4.707529e-16))
0.0623077     	((1.298849e+01 -2.382004e-14 1.442542e+03) (1.993480e+01 2.069840e-18 9.816750e-02)) ((-8.563958e-14 -6.402498e+02 -1.436499e-14) (1.738561e-17 2.009029e+01 4.614879e-16))
0.0630769     	((-3.189354e+00 -2.875672e-14 1.260704e+03) (1.994901e+01 3.099613e-18 1.032601e-01)) ((-7.800055e-14 -5.283314e+02 -1.847315e-14) (1.500925e-17 2.009991e+01 4.486608e-16))
0.0638462     	((-8.249490e+01 -4.981005e-14 7.030571e+02) (2.000507e+01 3.481271e-18 1.378165e-01)) ((-5.227063e-14 -1.847629e+02 -3.647119e-14) (1.560102e-17 2.012594e+01 4.360225e-16))
0.0646154     	((-2.285760e+02 -4.856680e-14 1.063509e+03) (1.970948e+01 8.055932e-18 3.062803e-01)) ((-8.380730e-14 -4.086764e+02 -3.707095e-14) (1.901964e-17 1.968044e+01 4.257978e-16))
0.0653846     	((-2.462947e+02 -8.166650e-14 -1.319046e+02) (1.951074e+01 7.686222e-18 3.750570e-01)) ((-8.542296e-15 3.431450e+02 -6.576085e-14) (2.225176e-17 1.942161e+01 4.163121e-16))
0.0661538     	((-3.225368e+03 -4.752355e-13 -1.252475e+04) (1.901403e+01 3.109720e-18 3.033761e-01)) ((-1.433822e-13 8.126905e+03 -3.523635e-13) (1.408793e-17 1.900515e+01 3.503443e-16))
0.0669231     	((1.512328e+02 -1.706337e-14 1.093211e+03) (1.907775e+01 2.311365e-18 2.963502e-01)) ((-5.767375e-14 -2.785642e+02 -8.607342e-15) (1.350659e-17 1.909484e+01 3.437268e-16))
0.0676496     	((1.357878e+02 -1.735416e-14 1.240747e+03) (1.914160e+01 1.789803e-18 3.064106e-01)) ((-6.131752e-14 -3.962310e+02 -9.206100e-15) (1.333629e-17 1.917241e+01 3.363906e-16))
0.0683761     	((1.406441e+02 -1.738491e-14 1.217842e+03) (1.919253e+01 1.369586e-18 3.193361e-01)) ((-6.041514e-14 -3.774117e+02 -9.063442e-15) (1.297412e-17 1.923354e+01 3.298502e-16))
0.0691026     	((1.373014e+02 -1.744163e-14 1.197603e+03) (1.926176e+01 1.107316e-18 3.213337e-01)) ((-5.961979e-14 -3.787212e+02 -9.189246e-15) (1.276960e-17 1.931397e+01 3.243065e-16))
0.0698291     	((1.258303e+02 -1.735655e-14 1.312632e+03) (1.936814e+01 9.015941e-19 3.126711e-01)) ((-6.216691e-14 -4.697853e+02 -9.576503e-15) (1.301604e-17 1.943410e+01 3.207676e-16))
0.0705556     	((1.299559e+02 -1.813954e-14 1.216519e+03) (1.949558e+01 6.363884e-19 3.015915e-01)) ((-5.953495e-14 -4.127049e+02 -9.623883e-15) (1.295605e-17 1.957513e+01 3.176539e-16))
0.0712821     	((1.203071e+02 -1.772648e-14 1.236876e+03) (1.961903e+01 4.625621e-19 2.858942e-01)) ((-5.918144e-14 -4.579588e+02 -9.814880e-15) (1.229170e-17 1.971397e+01 3.136075e-16))
0.0720085     	((1.246875e+02 -1.623308e-14 1.126286e+03) (1.975435e+01 8.017702e-19 2.624562e-01)) ((-6.302482e-14 -3.892204e+02 -8.859325e-15) (1.219187e-17 1.986937e+01 3.072662e-16))
0.072735      	((1.061516e+02 -1.699235e-14 1.371896e+03) (1.985250e+01 1.002283e-18 2.376681e-01)) ((-6.943016e-14 -5.652538e+02 -9.611774e-15) (1.268779e-17 1.998361e+01 3.054186e-16))
0.0734615     	((6.133313e+01 -1.681140e-14 1.784567e+03) (1.991820e+01 9.121524e-19 2.174313e-01)) ((-7.718404e-14 -9.044395e+02 -1.086928e-14) (1.281028e-17 2.005911e+01 3.029881e-16))
0.074188      	((6.112239e+01 -2.192092e-14 1.608578e+03) (1.997058e+01 2.107084e-19 1.952770e-01)) ((-7.153735e-14 -8.005126e+02 -1.326583e-14) (1.512348e-17 2.012001e+01 2.998422e-16))
0.0749145     	((5.544393e+01 -2.360728e-14 1.673558e+03) (2.002957e+01 6.667704e-19 1.887747e-01)) ((-6.693725e-14 -8.322867e+02 -1.492504e-14) (1.662352e-17 2.017254e+01 3.000824e-16))
0.075641      	((2.898711e+01 -2.275686e-14 2.066320e+03) (2.008114e+01 4.766974e-19 1.643910e-01)) ((-7.250981e-14 -1.119976e+03 -1.568950e-14) (1.693493e-17 2.023367e+01 2.990055e-16))
0.0763675     	((6.249106e+01 -2.384454e-14 1.482885e+03) (2.016735e+01 -8.545371e-19 1.350478e-01)) ((-5.349029e-14 -7.080954e+02 -1.564432e-14) (1.539839e-17 2.033333e+01 2.923535e-16))
0.077094      	((5.511888e+01 -2.618462e-14 1.365934e+03) (2.028334e+01 -4.411450e-19 9.891086e-02)) ((-5.764567e-14 -6.447590e+02 -1.645791e-14) (1.582141e-17 2.046905e+01 2.876729e-16))
0.0778205     	((4.931372e+01 -2.208701e-14 1.138926e+03) (2.044280e+01 -5.171021e-19 5.243030e-02)) ((-6.025283e-14 -5.062647e+02 -1.337159e-14) (1.621921e-17 2.065929e+01 2.872916e-16))
0.078547      	((2.728104e+01 -1.894617e-14 9.828489e+02) (2.064494e+01 3.247594e-19 2.019786e-03)) ((-5.724506e-14 -4.175562e+02 -1.199531e-14) (1.261975e-17 2.090110e+01 2.821691e-16))
0.0792735     	((-4.736140e+01 -2.571181e-14 2.520979e+02) (2.085491e+01 -3.627663e-19 -2.645510e-02)) ((-5.761938e-14 2.533534e+00 -1.570346e-14) (1.610810e-17 2.113937e+01 2.853179e-16))
0.08          	((-3.978236e+02 -1.140530e-13 -1.093363e+03) (2.096150e+01 4.686412e-20 -5.407306e-03)) ((4.278208e-14 7.823196e+02 -9.365674e-14) (1.569045e-17 2.123604e+01 2.836419e-16))
0.0807407     	((-4.893886e+01 -4.361732e-14 8.326049e+02) (2.116027e+01 -1.019953e-18 -6.840034e-03)) ((-4.242966e-14 -2.902623e+02 -3.239470e-14) (1.335753e-17 2.144636e+01 2.769753e-16))
0.0814815     	((1.172261e+01 -2.865370e-14 1.166312e+03) (2.141510e+01 -1.934541e-18 -7.623509e-02)) ((-6.016174e-14 -4.824526e+02 -1.934247e-14) (3.842740e-18 2.177603e+01 2.658596e-16))
0.0822222     	((-9.268809e+01 -4.052491e-14 5.138542e+02) (2.160034e+01 -2.440513e-19 -9.063271e-03)) ((-7.533156e-14 -6.637138e+01 -2.545205e-14) (1.548703e-17 2.190769e+01 2.785638e-16))
0.082963      	((-1.437412e+01 -3.163149e-14 1.037411e+03) (2.175840e+01 -1.584387e-19 -8.403710e-04)) ((-6.304023e-14 -4.136521e+02 -2.107322e-14) (2.108991e-17 2.206136e+01 2.908159e-16))
0.0837037     	((-1.096969e+03 -1.710712e-13 -2.588943e+03) (2.151487e+01 2.301479e-18 1.443151e-01)) ((-1.430383e-13 1.718176e+03 -1.224009e-13) (1.099002e-17 2.171462e+01 2.847964e-16))
0.0844797     	((-5.818242e+02 -1.068281e-13 -1.323441e+03) (2.147809e+01 1.231776e-18 1.900496e-01)) ((-7.503646e-14 1.002077e+03 -7.742332e-14) (7.574546e-18 2.167584e+01 2.778194e-16))
0.0852188     	((3.824505e+01 -2.872454e-14 9.616295e+02) (2.165478e+01 9.590322e-19 1.451924e-01)) ((-5.334622e-14 -3.406724e+02 -1.865031e-14) (3.895545e-18 2.189149e+01 2.731342e-16))
0.0859226     	((2.719587e+01 -2.916258e-14 9.984343e+02) (2.183913e+01 8.511765e-19 9.501267e-02)) ((-5.542067e-14 -3.597793e+02 -1.918618e-14) (-3.259478e-18 2.213634e+01 2.661508e-16))
0.0866636     	((1.528061e+01 -3.166913e-14 7.598734e+02) (2.202075e+01 5.060583e-19 6.352349e-02)) ((-5.513191e-14 -2.669326e+02 -2.079753e-14) (-6.042256e-18 2.236763e+01 2.606482e-16))
0.0874045     	((-2.493538e+02 -6.764090e-14 -3.821765e+02) (2.204477e+01 1.215954e-18 1.393496e-01)) ((-7.929269e-14 3.165783e+02 -4.661939e-14) (7.640555e-18 2.235247e+01 2.658722e-16))
0.0881454     	((-2.650356e+01 -3.645634e-14 7.999562e+02) (2.215267e+01 1.122038e-18 1.517950e-01)) ((-6.639185e-14 -2.367364e+02 -2.453246e-14) (1.006074e-17 2.246529e+01 2.696552e-16))
0.0888863     	((-5.770571e+01 -4.863915e-14 -4.375327e+01) (2.219713e+01 9.354640e-19 2.061969e-01)) ((-4.506896e-14 8.365597e+01 -3.032647e-14) (4.252840e-18 2.250286e+01 2.643482e-16))
0.0896272     	((-2.788415e+01 -3.830620e-14 7.161480e+02) (2.227950e+01 3.063660e-19 2.135394e-01)) ((-6.047592e-14 -2.018107e+02 -2.499782e-14) (3.679721e-18 2.259060e+01 2.593968e-16))
0.0903681     	((-2.862557e+01 -3.797699e-14 7.366765e+02) (2.236606e+01 9.818958e-20 2.253073e-01)) ((-6.098335e-14 -2.067515e+02 -2.487027e-14) (3.736865e-18 2.268186e+01 2.565429e-16))
0.091109      	((-3.818112e+01 -4.463824e-14 3.244317e+02) (2.237446e+01 4.367698e-19 2.858217e-01)) ((-5.624377e-14 -5.147177e+01 -2.798436e-14) (6.203822e-18 2.268064e+01 2.558285e-16))
0.09185       	((-3.324313e+01 -4.248771e-14 4.751667e+02) (2.236702e+01 1.082778e-18 3.218381e-01)) ((-5.947020e-14 -1.061466e+02 -2.693828e-14) (9.789305e-18 2.266670e+01 2.611974e-16))
0.0925909     	((-2.727492e+01 -3.931781e-14 6.711008e+02) (2.242171e+01 1.181783e-18 3.008111e-01)) ((-6.215193e-14 -1.766840e+02 -2.540979e-14) (1.442904e-17 2.272927e+01 2.684658e-16))
0.0933318     	((-2.652694e+01 -3.869910e-14 7.029763e+02) (2.247358e+01 1.294064e-18 3.007680e-01)) ((-6.252276e-14 -1.867725e+02 -2.511169e-14) (1.617047e-17 2.278509e+01 2.729882e-16))
0.0940727     	((-2.691589e+01 -3.894170e-14 6.682197e+02) (2.251223e+01 1.391253e-18 3.035657e-01)) ((-6.147611e-14 -1.717865e+02 -2.521476e-14) (1.694191e-17 2.282634e+01 2.750101e-16))
0.0948136     	((-3.415403e+01 -4.277372e-14 2.548478e+02) (2.244483e+01 1.505190e-18 3.665236e-01)) ((-4.914856e-14 -1.991576e+01 -2.702180e-14) (1.222909e-17 2.274460e+01 2.644169e-16))
0.0955545     	((-2.769174e+01 -3.919008e-14 5.460904e+02) (2.244642e+01 1.487552e-18 3.405770e-01)) ((-5.593165e-14 -1.251079e+02 -2.533196e-14) (1.342583e-17 2.275092e+01 2.607618e-16))
0.0962954     	((-2.525227e+01 -3.771756e-14 6.627210e+02) (2.246212e+01 1.473820e-18 3.316127e-01)) ((-5.875077e-14 -1.668147e+02 -2.463819e-14) (1.421564e-17 2.276942e+01 2.606751e-16))
0.0970363     	((-2.557837e+01 -3.769165e-14 6.585589e+02) (2.248999e+01 1.563919e-18 3.135158e-01)) ((-5.873440e-14 -1.639746e+02 -2.464536e-14) (1.426677e-17 2.280219e+01 2.615211e-16))
0.0977773     	((-3.134081e+01 -4.273449e-14 1.179809e+02) (2.245318e+01 1.621348e-18 3.362357e-01)) ((-4.489756e-14 3.248278e+01 -2.707063e-14) (9.574236e-18 2.275966e+01 2.595843e-16))
0.0985182     	((-2.335943e+01 -3.767447e-14 6.189646e+02) (2.246984e+01 1.721847e-18 3.155559e-01)) ((-5.759315e-14 -1.497940e+02 -2.462112e-14) (7.413773e-18 2.278040e+01 2.543922e-16))
0.0992591     	((-2.416655e+01 -3.745561e-14 6.485358e+02) (2.250815e+01 1.457332e-18 3.060797e-01)) ((-5.870071e-14 -1.589391e+02 -2.455715e-14) (6.111017e-18 2.282241e+01 2.496427e-16))
0.1           	((-2.475371e+01 -4.355304e-14 1.646115e+02) (2.249906e+01 1.337689e-18 3.260245e-01)) ((-5.277261e-14 1.604880e+01 -2.764038e-14) (6.440787e-18 2.280960e+01 2.509107e-16))
0.100741      	((-2.161042e+01 -3.798961e-14 6.446642e+02) (2.252752e+01 1.367873e-18 3.275670e-01)) ((-6.113840e-14 -1.579892e+02 -2.485102e-14) (6.267937e-18 2.283955e+01 2.483873e-16))
0.101481      	((-2.273062e+01 -3.805946e-14 6.423242e+02) (2.256250e+01 1.396967e-18 3.335586e-01)) ((-6.112944e-14 -1.551525e+02 -2.490690e-14) (6.213807e-18 2.287605e+01 2.457763e-16))
0.102222      	((-2.109963e+01 -4.178656e-14 3.248145e+02) (2.256859e+01 1.511473e-18 3.560493e-01)) ((-5.678585e-14 -4.124455e+01 -2.676272e-14) (4.275597e-18 2.287972e+01 2.442852e-16))
0.102963      	((-2.001573e+01 -3.927499e-14 5.383592e+02) (2.258550e+01 1.626238e-18 3.679886e-01)) ((-6.008135e-14 -1.176466e+02 -2.550280e-14) (2.679097e-18 2.289626e+01 2.394707e-16))
0.103704      	((-2.132789e+01 -3.789618e-14 6.548697e+02) (2.261452e+01 1.652115e-18 3.793464e-01)) ((-6.176583e-14 -1.594564e+02 -2.482379e-14) (2.351882e-18 2.292589e+01 2.345685e-16))
0.104444      	((-2.161558e+01 -3.797525e-14 6.457898e+02) (2.264695e+01 1.705590e-18 3.878527e-01)) ((-6.170703e-14 -1.556492e+02 -2.488715e-14) (2.170759e-18 2.295960e+01 2.307909e-16))
0.105185      	((-2.064571e+01 -3.838601e-14 5.840925e+02) (2.266855e+01 1.620513e-18 3.988367e-01)) ((-6.264991e-14 -1.337369e+02 -2.537640e-14) (2.850664e-18 2.298167e+01 2.297909e-16))
0.105926      	((-1.817158e+01 -3.913735e-14 4.528908e+02) (2.266374e+01 1.475581e-18 4.182345e-01)) ((-6.566597e-14 -8.671779e+01 -2.653244e-14) (5.033580e-18 2.297479e+01 2.345601e-16))
0.106667      	((-1.976198e+01 -3.755411e-14 6.224087e+02) (2.267154e+01 1.525439e-18 4.272548e-01)) ((-6.539556e-14 -1.478841e+02 -2.531617e-14) (5.392375e-18 2.298259e+01 2.364269e-16))
0.107407      	((-2.063531e+01 -3.736315e-14 6.441669e+02) (2.268396e+01 1.568831e-18 4.346407e-01)) ((-6.510372e-14 -1.555653e+02 -2.515148e-14) (5.600790e-18 2.299552e+01 2.367305e-16))
0.108148      	((-2.074017e+01 -3.724914e-14 6.538114e+02) (2.269791e+01 1.607462e-18 4.406057e-01)) ((-6.504451e-14 -1.592212e+02 -2.507363e-14) (5.741911e-18 2.301029e+01 2.361875e-16))
0.108889      	((-2.092932e+01 -3.720017e-14 6.577240e+02) (2.271000e+01 1.635298e-18 4.446922e-01)) ((-6.500128e-14 -1.608703e+02 -2.504329e-14) (5.822013e-18 2.302337e+01 2.353101e-16))