# Residuals   
# Time        	p_rgh         	Ux            	Uz            	alpha.water   	k             	omega         
0             	N/A	N/A	N/A	N/A	N/A
1.19976e-05   	1.000000e+00	9.999622e-01	9.998978e-01	1.000000e+00	1.000000e+00	6.377466e-02
2.63878e-05   	3.281274e-05	9.347795e-02	3.229374e-01	3.218522e-05	9.476674e-01	7.749319e-02
4.36511e-05   	7.802797e-07	7.770403e-02	2.050033e-01	2.224286e-06	9.062396e-01	9.445125e-02
6.43527e-05   	1.603568e-06	3.064150e-02	8.731924e-02	3.481258e-06	8.740133e-01	1.154720e-01
8.91792e-05   	1.815508e-06	2.837771e-02	7.584355e-02	3.380441e-06	8.487624e-01	1.417920e-01
0.000118941   	2.310915e-06	3.166725e-02	7.115874e-02	3.571721e-06	8.283848e-01	1.749872e-01
0.000154634   	3.405497e-06	2.354291e-02	4.842060e-02	4.202559e-06	8.119549e-01	2.175393e-01
0.000197405   	4.744949e-06	2.052662e-02	4.065987e-02	4.534035e-06	7.983979e-01	2.725587e-01
0.000248707   	5.169466e-06	2.611017e-02	4.715399e-02	4.341401e-06	7.871615e-01	3.458985e-01
0.000310237   	2.881640e-06	7.252354e-02	9.586596e-02	3.363839e-06	7.775344e-01	4.457749e-01
0.000383982   	4.823135e-06	4.385941e-02	5.323759e-02	3.993172e-06	7.688069e-01	5.864377e-01
0.000472342   	9.573975e-06	2.652858e-02	3.103622e-02	4.604216e-06	7.607538e-01	7.954166e-01
0.000577897   	1.106844e-05	3.030070e-02	2.971868e-02	4.531970e-06	7.527691e-01	8.702735e-01
0.000704014   	1.578315e-05	2.701613e-02	2.392998e-02	4.733602e-06	7.450247e-01	8.888137e-01
0.000854764   	1.624800e-05	3.482511e-02	2.890966e-02	4.145166e-06	7.375582e-01	9.045149e-01
0.00103538    	1.791721e-05	2.798119e-02	2.485026e-02	3.628932e-06	7.298785e-01	9.181467e-01
0.00125089    	1.872029e-05	3.288947e-02	2.839595e-02	3.441403e-06	7.206736e-01	9.295724e-01
0.00150772    	2.110606e-05	3.189813e-02	2.555004e-02	3.241307e-06	7.100792e-01	9.393239e-01
0.00181593    	2.119707e-05	3.899042e-02	2.973204e-02	2.979900e-06	6.995851e-01	9.480063e-01
0.00217961    	1.888067e-05	4.827112e-02	3.639536e-02	2.555075e-06	6.833950e-01	9.547653e-01
0.00261425    	2.118815e-05	3.367966e-02	2.411130e-02	2.547076e-06	6.681483e-01	9.610449e-01
0.0031256     	2.196544e-05	3.318689e-02	2.301457e-02	2.339121e-06	6.470272e-01	9.653742e-01
0.00372826    	2.124989e-05	3.345813e-02	2.223499e-02	2.111522e-06	6.242628e-01	9.680494e-01
0.00443572    	9.551856e-06	1.153825e-01	8.896893e-02	1.318548e-06	5.974752e-01	9.690395e-01
0.0052549     	1.016690e-05	4.489557e-02	2.952639e-02	1.400323e-06	5.638021e-01	9.677824e-01
0.0062379     	1.027951e-05	3.727279e-02	2.327169e-02	1.258441e-06	5.380242e-01	9.662185e-01
0.00738474    	9.056822e-06	3.780753e-02	2.187771e-02	1.133220e-06	5.036634e-01	9.613241e-01
0.00864627    	9.079580e-06	3.587040e-02	2.273870e-02	9.563919e-07	4.560401e-01	9.514351e-01
0.00931414    	6.404922e-06	1.653313e-02	1.161661e-02	8.448219e-07	2.619424e-01	8.538698e-01
0.009982      	5.890679e-06	1.574418e-02	1.118892e-02	7.791411e-07	2.378100e-01	8.098641e-01
0.0106976     	6.028626e-06	1.541882e-02	1.185806e-02	7.278882e-07	2.279927e-01	7.797400e-01
0.0114131     	5.661437e-06	1.462669e-02	1.169248e-02	6.783021e-07	2.073691e-01	7.369331e-01
0.0121287     	5.078301e-06	1.347350e-02	1.163151e-02	6.443924e-07	1.892699e-01	6.959452e-01
0.0128443     	4.982651e-06	1.248066e-02	1.125261e-02	6.129228e-07	1.733540e-01	6.562710e-01
0.0134948     	4.652736e-06	1.058788e-02	9.785281e-03	5.772102e-07	1.474878e-01	5.945469e-01
0.0141453     	4.694438e-06	9.852454e-03	9.233301e-03	5.441171e-07	1.368108e-01	5.610691e-01
0.0147958     	5.046895e-06	9.374373e-03	9.374932e-03	5.346513e-07	1.272092e-01	5.294921e-01
0.0154464     	4.265553e-06	9.411162e-03	9.796502e-03	5.062212e-07	1.185711e-01	4.998281e-01
0.0160969     	4.840058e-06	8.831094e-03	9.681852e-03	4.988988e-07	1.107549e-01	4.719949e-01
0.0167474     	4.484836e-06	8.755803e-03	9.759830e-03	4.778467e-07	1.036950e-01	4.458712e-01
0.0173979     	4.831511e-06	8.345946e-03	9.751136e-03	4.657412e-07	9.727116e-02	4.214039e-01
0.0180484     	4.700297e-06	8.047595e-03	9.635632e-03	4.551507e-07	9.142256e-02	3.984752e-01
0.018699      	4.764196e-06	7.766649e-03	9.490792e-03	4.486136e-07	8.606679e-02	3.769639e-01
0.0193495     	3.923337e-06	7.605396e-03	9.453617e-03	4.201544e-07	8.117657e-02	3.568704e-01
0.02          	5.685979e-06	6.871091e-03	8.726977e-03	4.193701e-07	7.668125e-02	3.379849e-01
0.0207143     	5.025663e-06	7.796364e-03	9.949016e-03	4.055973e-07	7.885319e-02	3.409618e-01
0.0214286     	5.492269e-06	7.261473e-03	9.621417e-03	3.943572e-07	7.434984e-02	3.220830e-01
0.0221429     	5.221275e-06	7.160311e-03	9.609410e-03	3.871882e-07	7.021055e-02	3.043980e-01
0.0228571     	5.034234e-06	6.814593e-03	9.235591e-03	3.709364e-07	6.639491e-02	2.878698e-01
0.0235714     	5.478337e-06	6.660073e-03	9.122022e-03	3.656522e-07	6.286146e-02	2.723985e-01
0.0242857     	5.819985e-06	6.383993e-03	8.943748e-03	3.551554e-07	5.960048e-02	2.579541e-01
0.025         	6.345234e-06	6.137912e-03	8.695028e-03	3.504104e-07	5.654746e-02	2.444271e-01
0.0257143     	5.559386e-06	6.151493e-03	8.701103e-03	3.368419e-07	5.371393e-02	2.317886e-01
0.0264286     	7.085916e-06	5.398681e-03	7.883264e-03	3.349964e-07	5.107270e-02	2.199427e-01
0.0271429     	5.570093e-06	5.853442e-03	8.363334e-03	3.245415e-07	4.860837e-02	2.088747e-01
0.0278571     	7.100312e-06	5.355573e-03	7.874452e-03	3.226696e-07	4.631592e-02	1.984818e-01
0.0285714     	6.120192e-06	5.343224e-03	7.867148e-03	2.990944e-07	4.413850e-02	1.887721e-01
0.0292437     	6.402475e-06	4.784392e-03	7.066825e-03	3.006633e-07	3.979942e-02	1.709954e-01
0.029916      	6.764097e-06	4.697161e-03	6.973658e-03	2.910011e-07	3.810479e-02	1.632443e-01
0.0305882     	6.009462e-06	4.758799e-03	7.056501e-03	2.671131e-07	3.649548e-02	1.559581e-01
0.0312605     	6.180440e-06	4.682937e-03	6.957385e-03	2.606447e-07	3.496937e-02	1.491069e-01
0.0319328     	6.426034e-06	4.315342e-03	6.511728e-03	2.429321e-07	3.354778e-02	1.426529e-01
0.032605      	5.393854e-06	4.549828e-03	6.764348e-03	2.357448e-07	3.218809e-02	1.365671e-01
0.0332773     	4.581132e-06	4.584781e-03	6.752787e-03	2.385907e-07	3.088417e-02	1.308279e-01
0.0339496     	3.835381e-06	4.596253e-03	6.712946e-03	2.375414e-07	2.964767e-02	1.254129e-01
0.0346218     	4.457560e-06	4.369307e-03	6.442968e-03	2.344853e-07	2.850285e-02	1.202982e-01
0.0352941     	4.374110e-06	4.413376e-03	6.477495e-03	2.340620e-07	2.738923e-02	1.154655e-01
0.0359664     	4.492184e-06	4.370452e-03	6.398034e-03	2.386077e-07	2.631783e-02	1.108998e-01
0.0366387     	4.468637e-06	4.317603e-03	6.316917e-03	2.407935e-07	2.529677e-02	1.065782e-01
0.0373109     	4.672478e-06	4.225924e-03	6.203916e-03	2.354449e-07	2.429446e-02	1.025156e-01
0.0379832     	5.067986e-06	4.020999e-03	5.915428e-03	2.391456e-07	2.354523e-02	9.867721e-02
0.0386555     	5.215534e-06	4.032140e-03	5.867673e-03	2.438942e-07	2.282930e-02	9.502079e-02
0.0393277     	4.618161e-06	4.007694e-03	5.785309e-03	2.522411e-07	2.205648e-02	9.154394e-02
0.04          	4.418629e-06	3.988855e-03	5.755222e-03	2.566259e-07	2.131373e-02	8.824560e-02
0.0406897     	5.156417e-06	3.861536e-03	5.602226e-03	2.636514e-07	2.110357e-02	8.708507e-02
0.0413793     	5.035087e-06	3.979006e-03	5.711996e-03	2.730393e-07	2.037494e-02	8.396023e-02
0.042069      	6.209805e-06	3.876770e-03	5.545436e-03	2.798247e-07	1.957329e-02	8.098591e-02
0.0427586     	5.733330e-06	3.862573e-03	5.457237e-03	2.884474e-07	1.906787e-02	7.810008e-02
0.0434483     	5.738378e-06	3.646149e-03	5.245022e-03	2.968390e-07	1.847493e-02	7.536086e-02
0.0441379     	4.819054e-06	3.775734e-03	5.413818e-03	3.073289e-07	1.791688e-02	7.275864e-02
0.0448276     	5.238987e-06	3.663655e-03	5.230412e-03	3.168238e-07	1.737126e-02	7.029238e-02
0.0455172     	4.884641e-06	3.633304e-03	5.108940e-03	3.278265e-07	1.687810e-02	6.795675e-02
0.0462069     	5.321005e-06	3.344040e-03	4.634753e-03	3.335202e-07	1.641976e-02	6.573784e-02
0.0468966     	4.839290e-06	3.450270e-03	4.649741e-03	3.532210e-07	1.595269e-02	6.361012e-02
0.0475862     	6.001472e-06	3.394253e-03	4.592271e-03	3.679042e-07	1.545820e-02	6.155445e-02
0.0482759     	5.143558e-06	3.388329e-03	4.604123e-03	3.815789e-07	1.503656e-02	5.959005e-02
0.0489655     	6.027926e-06	3.125900e-03	4.290198e-03	3.928517e-07	1.460097e-02	5.771332e-02
0.0496552     	5.023962e-06	3.260002e-03	4.422857e-03	4.084539e-07	1.417133e-02	5.590828e-02
0.0503448     	5.550861e-06	3.203865e-03	4.363666e-03	4.188421e-07	1.377057e-02	5.417887e-02
0.0510345     	6.098295e-06	3.182984e-03	4.337280e-03	4.282723e-07	1.337968e-02	5.250944e-02
0.0517241     	7.363923e-06	2.957743e-03	4.033455e-03	4.386959e-07	1.298933e-02	5.090942e-02
0.0524138     	7.112654e-06	3.093866e-03	4.171947e-03	4.515256e-07	1.264336e-02	4.940654e-02
0.0531034     	7.972827e-06	2.940426e-03	3.969342e-03	4.700726e-07	1.227071e-02	4.794275e-02
0.0537931     	6.478186e-06	2.928718e-03	3.930203e-03	4.732811e-07	1.194151e-02	4.653843e-02
0.0544828     	6.985713e-06	2.765472e-03	3.727608e-03	4.932161e-07	1.162318e-02	4.517349e-02
0.0551724     	6.176469e-06	2.905695e-03	3.909873e-03	5.106021e-07	1.132690e-02	4.385401e-02
0.0558621     	8.233844e-06	2.772870e-03	3.731903e-03	5.210404e-07	1.103380e-02	4.259812e-02
0.0565517     	7.816010e-06	2.590448e-03	3.475213e-03	5.305332e-07	1.080822e-02	4.142379e-02
0.0572414     	6.440733e-06	2.722223e-03	3.619547e-03	5.595727e-07	1.056486e-02	4.029945e-02
0.057931      	7.506913e-06	2.638891e-03	3.523755e-03	5.701069e-07	1.027294e-02	3.920638e-02
0.0586207     	8.164585e-06	2.490837e-03	3.332859e-03	5.706088e-07	1.005382e-02	3.816813e-02
0.0593103     	9.061950e-06	2.425153e-03	3.265617e-03	5.959457e-07	9.778628e-03	3.715462e-02
0.06          	1.030169e-05	2.519296e-03	3.359399e-03	6.000007e-07	9.430685e-03	3.614277e-02
0.0606897     	1.322731e-05	2.424727e-03	3.179347e-03	5.762745e-07	9.461924e-03	3.532688e-02
0.0613793     	1.537338e-05	5.301805e-03	6.557827e-03	6.047779e-07	9.166296e-03	3.440622e-02
0.062069      	1.483458e-05	2.460616e-03	3.093257e-03	6.368660e-07	8.894827e-03	3.352785e-02
0.0627586     	1.863848e-05	2.298818e-03	2.955606e-03	6.167004e-07	8.803111e-03	3.273097e-02
0.0634218     	2.445496e-05	3.228429e-03	3.886772e-03	6.455664e-07	8.247952e-03	3.072202e-02
0.0640849     	2.789051e-05	2.148585e-03	2.756100e-03	5.809924e-07	8.314621e-03	3.007132e-02
0.064748      	3.299398e-05	1.292407e-02	1.664283e-02	5.006286e-07	8.338690e-03	2.942203e-02
0.0654111     	3.675042e-05	5.059198e-03	6.621467e-03	3.363110e-07	7.719106e-03	2.866130e-02
0.0660743     	1.250076e-05	1.097800e-01	1.361998e-01	7.434208e-08	7.705070e-03	2.797393e-02
0.0667374     	1.568570e-05	1.028357e-02	1.304239e-02	2.995817e-07	7.478893e-03	2.735675e-02
0.0674005     	1.530503e-05	8.298527e-03	1.069706e-02	3.192200e-07	7.279897e-03	2.675807e-02
0.0680637     	1.662364e-05	7.002436e-03	9.408371e-03	3.299934e-07	7.113607e-03	2.617804e-02
0.0687268     	1.721490e-05	6.138206e-03	8.445001e-03	3.494188e-07	6.914814e-03	2.560827e-02
0.0693899     	1.899779e-05	5.456920e-03	7.681003e-03	3.675890e-07	6.760801e-03	2.506002e-02
0.0700531     	1.993634e-05	4.818130e-03	7.088241e-03	3.762572e-07	6.609039e-03	2.453080e-02
0.0707162     	2.117925e-05	4.000491e-03	6.014850e-03	3.597323e-07	6.463092e-03	2.401839e-02
0.0713793     	1.934790e-05	4.210659e-03	5.403017e-03	3.341122e-07	6.337963e-03	2.351669e-02
0.0720424     	1.919736e-05	2.651503e-03	3.673092e-03	3.281049e-07	6.220943e-03	2.303294e-02
0.0727056     	1.891469e-05	2.655398e-03	3.640706e-03	3.252110e-07	6.100474e-03	2.255805e-02
0.0733687     	1.848512e-05	3.201458e-03	3.894086e-03	3.158377e-07	5.992418e-03	2.209196e-02
0.0740318     	1.890980e-05	2.368825e-03	3.213268e-03	3.089711e-07	5.870735e-03	2.164086e-02
0.074695      	1.687106e-05	2.399520e-03	3.302080e-03	3.334334e-07	5.783619e-03	2.120174e-02
0.0753581     	1.570395e-05	2.552241e-03	3.561292e-03	3.216708e-07	5.697879e-03	2.078048e-02
0.0760212     	2.040257e-05	2.288260e-03	3.118087e-03	3.218960e-07	5.622072e-03	2.036589e-02
0.0766844     	1.781952e-05	2.213581e-03	2.734634e-03	2.680729e-07	5.565989e-03	1.996430e-02
0.0773475     	1.590929e-05	5.012336e-03	6.390747e-03	2.586969e-07	5.468189e-03	1.956051e-02
0.0780106     	1.305997e-05	2.420646e-03	2.826312e-03	2.593431e-07	5.609991e-03	1.921676e-02
0.0786737     	1.372345e-05	2.224246e-03	2.674534e-03	3.007216e-07	5.446042e-03	1.881944e-02
0.0793369     	1.098809e-05	2.132420e-03	2.676438e-03	3.045988e-07	5.445063e-03	1.845506e-02
0.08          	1.746207e-05	2.284754e-03	2.750114e-03	2.743262e-07	4.937553e-03	1.808879e-02
0.0806667     	9.617676e-06	4.343778e-02	5.553844e-02	9.752696e-08	4.864473e-03	1.784557e-02
0.0813333     	8.228100e-06	4.878740e-03	6.369121e-03	1.709628e-07	4.780897e-03	1.750373e-02
0.081977      	8.512166e-06	3.638503e-03	4.815818e-03	1.742253e-07	4.539916e-03	1.660955e-02
0.0826207     	8.668844e-06	3.195520e-03	4.377323e-03	1.813156e-07	4.473343e-03	1.632210e-02
0.0832644     	9.148780e-06	3.019232e-03	4.095351e-03	1.855864e-07	4.361570e-03	1.603201e-02
0.083908      	9.810465e-06	2.413590e-03	3.057819e-03	1.972899e-07	4.381758e-03	1.577460e-02
0.0845517     	1.015196e-05	2.728003e-03	3.330113e-03	1.778143e-07	4.278141e-03	1.549380e-02
0.0851954     	6.581984e-06	1.389900e-02	1.801004e-02	1.205714e-07	4.212907e-03	1.522772e-02
0.0858391     	3.060995e-06	2.059087e-03	2.317072e-03	1.343318e-07	4.161817e-03	1.497069e-02
0.0864828     	2.286324e-06	1.984529e-03	2.251053e-03	1.399798e-07	4.107739e-03	1.471932e-02
0.0871264     	2.204503e-06	1.940928e-03	2.189633e-03	1.451264e-07	4.046729e-03	1.447215e-02
0.0877701     	2.264507e-06	1.916068e-03	2.159779e-03	1.454773e-07	3.980832e-03	1.422716e-02
0.0884138     	2.258000e-06	1.895622e-03	2.142574e-03	1.391989e-07	3.917962e-03	1.399109e-02
0.0890575     	2.242504e-06	1.877591e-03	2.119297e-03	1.368215e-07	3.858944e-03	1.376072e-02
0.0897011     	2.299674e-06	1.864270e-03	2.102387e-03	1.344990e-07	3.801025e-03	1.353569e-02
0.0903448     	2.422428e-06	1.851126e-03	2.087345e-03	1.319630e-07	3.740313e-03	1.331367e-02
0.0909885     	2.854509e-06	1.840210e-03	2.081417e-03	1.301827e-07	3.684785e-03	1.309803e-02
0.0916322     	2.871847e-06	1.832014e-03	2.075308e-03	1.264039e-07	3.630298e-03	1.288764e-02
0.0922759     	3.231773e-06	1.825082e-03	2.069668e-03	1.211916e-07	3.572650e-03	1.268010e-02
0.0929195     	3.619090e-06	1.818120e-03	2.065495e-03	1.171043e-07	3.515361e-03	1.247877e-02
0.0935632     	3.601513e-06	1.814072e-03	2.058376e-03	1.105731e-07	3.454081e-03	1.228246e-02
0.0942069     	3.906709e-06	1.807954e-03	2.045372e-03	1.049433e-07	3.388328e-03	1.209007e-02
0.0948506     	4.245128e-06	1.799432e-03	2.027136e-03	1.012771e-07	3.353979e-03	1.190273e-02
0.0954943     	4.200001e-06	1.789641e-03	1.986476e-03	9.539787e-08	3.408346e-03	1.172050e-02
0.0961379     	4.659364e-06	1.841834e-03	2.100147e-03	1.037265e-07	3.550497e-03	1.154471e-02
0.0967816     	3.536720e-06	2.288834e-03	2.740361e-03	1.198867e-07	3.609391e-03	1.136954e-02
0.0974253     	3.911367e-06	2.286406e-03	2.768060e-03	1.409792e-07	3.556787e-03	1.119941e-02
0.098069      	2.738122e-06	1.888385e-03	2.223156e-03	1.448372e-07	3.477529e-03	1.103275e-02
0.0987126     	2.438492e-06	1.809040e-03	2.049946e-03	1.407532e-07	3.391494e-03	1.086753e-02
0.0993563     	2.515847e-06	1.789127e-03	2.016797e-03	1.376462e-07	3.307795e-03	1.070804e-02
0.1           	2.463463e-06	1.777631e-03	1.992654e-03	1.302445e-07	3.229127e-03	1.055244e-02
0.100645      	2.707375e-06	1.771614e-03	1.981874e-03	1.215358e-07	3.158970e-03	1.042363e-02
0.10129       	2.946572e-06	1.764494e-03	1.974831e-03	1.132144e-07	3.082353e-03	1.027042e-02
0.101935      	3.031989e-06	1.757782e-03	1.980832e-03	1.095441e-07	3.011743e-03	1.012217e-02
0.102581      	3.097477e-06	1.754212e-03	1.985257e-03	1.049558e-07	2.945397e-03	9.976582e-03
0.103226      	3.287995e-06	1.750631e-03	1.987718e-03	1.016230e-07	2.890322e-03	9.834032e-03
0.103871      	3.674229e-06	1.747367e-03	1.987445e-03	9.872734e-08	2.841402e-03	9.691772e-03
0.104516      	3.516917e-06	1.741535e-03	1.985233e-03	9.786893e-08	2.791549e-03	9.554956e-03
0.105161      	3.390031e-06	1.736530e-03	1.981279e-03	9.580239e-08	2.743502e-03	9.420678e-03
0.105806      	3.326777e-06	1.730201e-03	1.975344e-03	9.401404e-08	2.701685e-03	9.289293e-03
0.106452      	4.053738e-06	1.722633e-03	1.968552e-03	9.285748e-08	2.650895e-03	9.158244e-03
0.107097      	3.872617e-06	1.719796e-03	1.965122e-03	9.281992e-08	2.647096e-03	9.030321e-03
0.107742      	3.499589e-06	1.735278e-03	1.993600e-03	9.139496e-08	2.680786e-03	8.905674e-03
0.108387      	3.223046e-06	1.826265e-03	2.162471e-03	8.929034e-08	2.718103e-03	8.784543e-03
0.109032      	3.269470e-06	1.909439e-03	2.298408e-03	1.005988e-07	2.729353e-03	8.664890e-03
0.109677      	2.965625e-06	1.834336e-03	2.204941e-03	1.162179e-07	2.716689e-03	8.549667e-03
0.110323      	2.268622e-06	1.761849e-03	2.077829e-03	1.271530e-07	2.685402e-03	8.435468e-03
0.110968      	2.040868e-06	1.735045e-03	2.023279e-03	1.332436e-07	2.648589e-03	8.324269e-03
0.111613      	1.577197e-06	1.725788e-03	2.003704e-03	1.351417e-07	2.607628e-03	8.213197e-03
0.112258      	1.746814e-06	1.718554e-03	1.992791e-03	1.367791e-07	2.565500e-03	8.105005e-03
0.112903      	1.431651e-06	1.711782e-03	1.983109e-03	1.364152e-07	2.524188e-03	7.998031e-03
0.113548      	1.739599e-06	1.703915e-03	1.977882e-03	1.360638e-07	2.485469e-03	7.893993e-03
0.114194      	1.899368e-06	1.697283e-03	1.973415e-03	1.349556e-07	2.446373e-03	7.789805e-03
0.114839      	1.733153e-06	1.692088e-03	1.971742e-03	1.357316e-07	2.409489e-03	7.689329e-03
0.115484      	1.828535e-06	1.689371e-03	1.967906e-03	1.345030e-07	2.372281e-03	7.589520e-03
0.116129      	1.734698e-06	1.685756e-03	1.968098e-03	1.335323e-07	2.337770e-03	7.492024e-03
0.116774      	1.392648e-06	1.683588e-03	1.968336e-03	1.320216e-07	2.305317e-03	7.396275e-03
0.117419      	1.340195e-06	1.681650e-03	1.968516e-03	1.309040e-07	2.274834e-03	7.302593e-03
0.118065      	2.164231e-06	1.679956e-03	1.967349e-03	1.298521e-07	2.242123e-03	7.208245e-03
0.11871       	1.698030e-06	1.676636e-03	1.967883e-03	1.305499e-07	2.211227e-03	7.116644e-03
0.119355      	1.528455e-06	1.674681e-03	1.965701e-03	1.297789e-07	2.181821e-03	7.026959e-03
0.12          	1.561606e-06	1.673040e-03	1.966349e-03	1.291832e-07	2.154159e-03	6.938979e-03
0.120645      	1.331063e-06	1.670769e-03	1.967991e-03	1.282369e-07	2.128631e-03	6.851668e-03
0.12129       	1.707259e-06	1.667264e-03	1.971433e-03	1.285343e-07	2.108039e-03	6.766718e-03
0.121935      	1.516555e-06	1.665016e-03	1.972012e-03	1.283504e-07	2.087635e-03	6.683099e-03
0.122581      	1.487853e-06	1.662543e-03	1.971275e-03	1.280241e-07	2.067468e-03	6.601323e-03
0.123226      	2.491632e-06	1.660139e-03	1.971460e-03	1.279551e-07	2.045219e-03	6.519032e-03
0.123871      	1.868373e-06	1.655962e-03	1.975076e-03	1.297244e-07	2.024279e-03	6.438895e-03
0.124516      	1.845710e-06	1.654720e-03	1.977177e-03	1.301534e-07	2.004500e-03	6.360629e-03
0.125161      	1.875864e-06	1.653162e-03	1.978932e-03	1.307412e-07	1.985655e-03	6.283823e-03
0.125806      	1.939673e-06	1.651409e-03	1.978547e-03	1.311051e-07	1.966063e-03	6.207221e-03
0.126452      	2.001674e-06	1.648363e-03	1.979405e-03	1.326455e-07	1.947048e-03	6.132724e-03
0.127097      	1.870604e-06	1.647071e-03	1.979014e-03	1.335501e-07	1.928113e-03	6.059391e-03
0.127742      	2.077173e-06	1.645013e-03	1.980660e-03	1.343890e-07	1.909604e-03	5.987501e-03
0.128387      	2.545889e-06	1.642818e-03	1.983331e-03	1.347456e-07	1.891175e-03	5.915399e-03
0.129032      	2.163433e-06	1.639396e-03	1.989126e-03	1.366374e-07	1.874444e-03	5.845097e-03
0.129677      	2.057271e-06	1.638771e-03	1.994902e-03	1.371510e-07	1.859634e-03	5.776539e-03
0.130323      	2.024425e-06	1.637749e-03	2.002656e-03	1.375830e-07	1.844207e-03	5.708959e-03
0.130968      	2.071287e-06	1.637003e-03	2.011288e-03	1.377626e-07	1.829215e-03	5.641932e-03
0.131613      	2.150624e-06	1.634907e-03	2.022162e-03	1.385635e-07	1.814503e-03	5.576150e-03
0.132258      	2.104094e-06	1.633304e-03	2.031185e-03	1.389221e-07	1.799573e-03	5.511838e-03
0.132903      	2.048503e-06	1.632073e-03	2.038755e-03	1.389007e-07	1.784866e-03	5.448304e-03
0.133548      	2.477856e-06	1.631839e-03	2.043461e-03	1.389436e-07	1.770105e-03	5.385232e-03
0.134194      	2.251924e-06	1.629884e-03	2.050159e-03	1.399395e-07	1.756736e-03	5.323415e-03
0.134839      	2.154128e-06	1.629709e-03	2.054460e-03	1.398277e-07	1.744219e-03	5.263122e-03
0.135484      	2.218493e-06	1.628421e-03	2.060360e-03	1.395941e-07	1.730101e-03	5.203488e-03
0.136129      	2.353076e-06	1.626841e-03	2.062979e-03	1.390459e-07	1.715371e-03	5.144056e-03
0.136774      	2.315634e-06	1.622624e-03	2.065511e-03	1.391886e-07	1.700678e-03	5.085671e-03
0.137419      	2.119471e-06	1.619433e-03	2.062603e-03	1.383617e-07	1.686163e-03	5.028612e-03
0.138065      	2.309061e-06	1.616513e-03	2.062348e-03	1.374095e-07	1.672658e-03	4.972709e-03
0.13871       	2.723424e-06	1.613579e-03	2.062094e-03	1.359882e-07	1.660031e-03	4.917026e-03
0.139355      	2.506704e-06	1.607975e-03	2.062464e-03	1.356761e-07	1.647091e-03	4.862493e-03
0.14          	2.335192e-06	1.603099e-03	2.056118e-03	1.341027e-07	1.633913e-03	4.809236e-03
0.140645      	2.628130e-06	1.597752e-03	2.049109e-03	1.326581e-07	1.619355e-03	4.756836e-03
0.14129       	3.021869e-06	1.593612e-03	2.039936e-03	1.310186e-07	1.602530e-03	4.704070e-03
0.141935      	2.519477e-06	1.587364e-03	2.033339e-03	1.302168e-07	1.585712e-03	4.652129e-03
0.142581      	2.554440e-06	1.584365e-03	2.024558e-03	1.284778e-07	1.569301e-03	4.601444e-03
0.143226      	2.576363e-06	1.580793e-03	2.016060e-03	1.269118e-07	1.553064e-03	4.551634e-03
0.143871      	2.686087e-06	1.577022e-03	2.007239e-03	1.254258e-07	1.537233e-03	4.502931e-03
0.144516      	2.426276e-06	1.572579e-03	1.999934e-03	1.241189e-07	1.521691e-03	4.455280e-03
0.145161      	3.318658e-06	1.568252e-03	1.992538e-03	1.233851e-07	1.505519e-03	4.407430e-03
0.145806      	2.925090e-06	1.562401e-03	1.986228e-03	1.238902e-07	1.490294e-03	4.360620e-03
0.146452      	2.682492e-06	1.558969e-03	1.977235e-03	1.236932e-07	1.475837e-03	4.314838e-03
0.147097      	2.870112e-06	1.555037e-03	1.969098e-03	1.235280e-07	1.461565e-03	4.269897e-03
0.147742      	3.139297e-06	1.551836e-03	1.960153e-03	1.229012e-07	1.446432e-03	4.224536e-03
0.148387      	2.968954e-06	1.546298e-03	1.954219e-03	1.231859e-07	1.430580e-03	4.179389e-03
0.149032      	2.897889e-06	1.542827e-03	1.948145e-03	1.234884e-07	1.416790e-03	4.135259e-03
0.149677      	2.840073e-06	1.538808e-03	1.942953e-03	1.236641e-07	1.405943e-03	4.091654e-03
0.150323      	3.246536e-06	1.534477e-03	1.936459e-03	1.242381e-07	1.396618e-03	4.049493e-03
0.150968      	2.887440e-06	1.530957e-03	1.929959e-03	1.238604e-07	1.388299e-03	4.008214e-03
0.151613      	3.736040e-06	1.526787e-03	1.923258e-03	1.231462e-07	1.380044e-03	3.966899e-03
0.152258      	3.230389e-06	1.522052e-03	1.919585e-03	1.229157e-07	1.372080e-03	3.926550e-03
0.152903      	2.914111e-06	1.517718e-03	1.915527e-03	1.223564e-07	1.363119e-03	3.886751e-03
0.153548      	3.299239e-06	1.515062e-03	1.913588e-03	1.221047e-07	1.354890e-03	3.847227e-03
0.154194      	2.981761e-06	1.511904e-03	1.913941e-03	1.217266e-07	1.347867e-03	3.808977e-03
0.154839      	3.420849e-06	1.509248e-03	1.914940e-03	1.222443e-07	1.341346e-03	3.770488e-03
0.155484      	2.600753e-06	1.504988e-03	1.917911e-03	1.230692e-07	1.335639e-03	3.732627e-03
0.156129      	3.273111e-06	1.501830e-03	1.925510e-03	1.237725e-07	1.331580e-03	3.694924e-03
0.156774      	2.664510e-06	1.498739e-03	1.938465e-03	1.240924e-07	1.327257e-03	3.658082e-03
0.157419      	2.882345e-06	1.497588e-03	1.955153e-03	1.241433e-07	1.326108e-03	3.621775e-03
0.158065      	2.643226e-06	1.496632e-03	1.972858e-03	1.247707e-07	1.326819e-03	3.586137e-03
0.15871       	2.331724e-06	1.497266e-03	1.992846e-03	1.242028e-07	1.327897e-03	3.551315e-03
0.159355      	1.922311e-06	1.497535e-03	2.007707e-03	1.224239e-07	1.330418e-03	3.517222e-03
0.16          	3.684717e-06	1.499770e-03	2.023920e-03	1.216798e-07	1.332672e-03	3.483438e-03
0.160645      	2.485646e-06	1.498623e-03	2.035742e-03	1.240168e-07	1.334662e-03	3.449952e-03
0.16129       	2.425225e-06	1.498372e-03	2.038523e-03	1.245509e-07	1.339424e-03	3.417099e-03
0.161935      	2.368266e-06	1.495562e-03	2.037285e-03	1.247414e-07	1.343506e-03	3.384799e-03
0.162581      	2.502811e-06	1.491105e-03	2.033584e-03	1.255975e-07	1.344636e-03	3.352707e-03
0.163226      	2.277650e-06	1.483575e-03	2.021549e-03	1.259282e-07	1.344007e-03	3.321012e-03
0.163871      	3.541741e-06	1.475624e-03	2.007143e-03	1.258371e-07	1.341122e-03	3.289154e-03
0.164516      	2.783959e-06	1.465006e-03	1.990941e-03	1.260747e-07	1.334083e-03	3.257344e-03
0.165161      	2.713109e-06	1.455148e-03	1.964950e-03	1.253751e-07	1.326281e-03	3.226161e-03
0.165806      	2.724770e-06	1.445350e-03	1.938070e-03	1.247469e-07	1.318086e-03	3.195255e-03
0.166452      	2.862472e-06	1.436148e-03	1.912860e-03	1.238637e-07	1.307896e-03	3.164628e-03
0.167097      	2.847387e-06	1.428118e-03	1.888839e-03	1.226138e-07	1.295452e-03	3.134704e-03
0.167742      	3.352482e-06	1.420614e-03	1.866943e-03	1.214835e-07	1.281557e-03	3.105298e-03
0.168387      	3.041938e-06	1.412006e-03	1.850387e-03	1.204499e-07	1.266498e-03	3.076165e-03
0.169032      	2.967363e-06	1.406857e-03	1.833124e-03	1.185031e-07	1.253618e-03	3.048170e-03
0.169677      	2.890745e-06	1.402289e-03	1.818629e-03	1.182494e-07	1.241889e-03	3.020652e-03
0.170323      	2.905138e-06	1.398007e-03	1.807600e-03	1.179226e-07	1.230037e-03	2.993440e-03
0.170968      	2.841775e-06	1.394498e-03	1.803037e-03	1.174282e-07	1.217201e-03	2.966677e-03
0.171613      	3.614610e-06	1.392618e-03	1.804518e-03	1.171036e-07	1.203456e-03	2.940163e-03
0.172258      	2.908472e-06	1.389051e-03	1.809713e-03	1.176865e-07	1.193632e-03	2.913575e-03
0.172903      	2.755214e-06	1.387302e-03	1.813723e-03	1.178416e-07	1.188021e-03	2.887474e-03
0.173548      	2.720607e-06	1.385657e-03	1.816651e-03	1.187011e-07	1.182858e-03	2.861609e-03
0.174194      	2.773633e-06	1.384376e-03	1.821893e-03	1.199438e-07	1.180408e-03	2.836355e-03
0.174839      	2.923398e-06	1.384182e-03	1.831036e-03	1.208384e-07	1.181931e-03	2.811337e-03
0.175484      	2.769319e-06	1.382877e-03	1.846000e-03	1.224591e-07	1.187882e-03	2.786598e-03
0.176129      	2.499043e-06	1.383777e-03	1.866891e-03	1.229123e-07	1.194365e-03	2.762497e-03
0.176774      	2.291784e-06	1.385713e-03	1.887081e-03	1.228515e-07	1.197640e-03	2.738441e-03
0.177419      	2.179539e-06	1.388244e-03	1.907915e-03	1.220158e-07	1.198591e-03	2.714545e-03
0.178065      	2.783658e-06	1.391639e-03	1.926555e-03	1.202747e-07	1.198467e-03	2.690853e-03
0.17871       	2.195634e-06	1.392991e-03	1.939079e-03	1.184393e-07	1.200866e-03	2.668706e-03
0.179355      	2.112397e-06	1.394465e-03	1.945947e-03	1.157379e-07	1.203215e-03	2.647292e-03
0.18          	2.141548e-06	1.393902e-03	1.948968e-03	1.162966e-07	1.204802e-03	2.625958e-03
0.180645      	2.167901e-06	1.390463e-03	1.946554e-03	1.165980e-07	1.204962e-03	2.604816e-03
0.18129       	2.708887e-06	1.385902e-03	1.938136e-03	1.161722e-07	1.204392e-03	2.583423e-03
0.181935      	2.185340e-06	1.379642e-03	1.928220e-03	1.156604e-07	1.202540e-03	2.561569e-03
0.182581      	2.192518e-06	1.373332e-03	1.910185e-03	1.143559e-07	1.198955e-03	2.540135e-03
0.183226      	2.265846e-06	1.367456e-03	1.889926e-03	1.129958e-07	1.194569e-03	2.518853e-03
0.183871      	2.496260e-06	1.360844e-03	1.866233e-03	1.121861e-07	1.188158e-03	2.497670e-03
0.184516      	2.957773e-06	1.355520e-03	1.845380e-03	1.139021e-07	1.181719e-03	2.476376e-03
0.185161      	2.743662e-06	1.350428e-03	1.828761e-03	1.168526e-07	1.175893e-03	2.455073e-03
0.185806      	2.800923e-06	1.347692e-03	1.813992e-03	1.195606e-07	1.169537e-03	2.434677e-03
0.186452      	2.724330e-06	1.344730e-03	1.803175e-03	1.217872e-07	1.163155e-03	2.414866e-03
0.187097      	2.657453e-06	1.341525e-03	1.795217e-03	1.230864e-07	1.153533e-03	2.395777e-03
0.187742      	3.083825e-06	1.339799e-03	1.793084e-03	1.232714e-07	1.143580e-03	2.376795e-03
0.188387      	2.492842e-06	1.338557e-03	1.800614e-03	1.233835e-07	1.132261e-03	2.356987e-03
0.189032      	2.429181e-06	1.338607e-03	1.810458e-03	1.228710e-07	1.123972e-03	2.337851e-03
0.189677      	2.414193e-06	1.338504e-03	1.819409e-03	1.220729e-07	1.118933e-03	2.319888e-03
0.190323      	2.675696e-06	1.338953e-03	1.828647e-03	1.217703e-07	1.125355e-03	2.302675e-03
0.190968      	3.017704e-06	1.339828e-03	1.837945e-03	1.208199e-07	1.129893e-03	2.285455e-03
0.191613      	2.702509e-06	1.339370e-03	1.845692e-03	1.205119e-07	1.132769e-03	2.268024e-03
0.192258      	2.615228e-06	1.339608e-03	1.851002e-03	1.198422e-07	1.137331e-03	2.250697e-03
0.192903      	2.348453e-06	1.340238e-03	1.857070e-03	1.191264e-07	1.140730e-03	2.233341e-03
0.193548      	2.202427e-06	1.342371e-03	1.869280e-03	1.183602e-07	1.142326e-03	2.215572e-03
0.194194      	2.530531e-06	1.345050e-03	1.881851e-03	1.185575e-07	1.141968e-03	2.197233e-03
0.194839      	2.082791e-06	1.346900e-03	1.901763e-03	1.204888e-07	1.141691e-03	2.177910e-03
0.195484      	2.174787e-06	1.350962e-03	1.919174e-03	1.218147e-07	1.140047e-03	2.159159e-03
0.196129      	2.125861e-06	1.355056e-03	1.932661e-03	1.228604e-07	1.142019e-03	2.143043e-03
0.196774      	2.306509e-06	1.357004e-03	1.939853e-03	1.236672e-07	1.145554e-03	2.127865e-03
0.197419      	2.686007e-06	1.357391e-03	1.942943e-03	1.233595e-07	1.144857e-03	2.112303e-03
0.197935      	3.299949e-06	1.083747e-03	1.554070e-03	1.226306e-07	9.099116e-04	1.680963e-03
0.198452      	2.008019e-06	1.092909e-03	1.574648e-03	1.213579e-07	9.105419e-04	1.670880e-03
0.198968      	1.816949e-06	1.088347e-03	1.564325e-03	1.202749e-07	9.106142e-04	1.660710e-03
0.199484      	1.799927e-06	1.083282e-03	1.552593e-03	1.199810e-07	9.090873e-04	1.650826e-03
0.2           	1.821341e-06	1.077135e-03	1.537425e-03	1.191143e-07	9.065045e-04	1.640715e-03