# Forces      
# CofR        : (0.000000e+00 0.000000e+00 -1.000000e+00)
# Time        forces(pressure viscous)	moments(pressure viscous)
0             	((0.000000e+00 8.429467e-17 5.115908e-13) (4.772922e+00 -5.457997e-20 2.640245e+00)) ((8.881784e-15 -1.136868e-13 3.552714e-15) (-1.320123e-01 3.471568e+00 2.386461e-01))
1.19976e-05   	((-1.903278e+03 -2.432802e-13 3.403234e+06) (4.740652e+00 -5.350436e-20 2.199407e+00)) ((-1.701617e+05 -1.560473e+06 -9.516391e+01) (-1.099704e-01 3.681160e+00 2.370326e-01))
2.63878e-05   	((-1.136791e+04 -2.982513e-14 4.630047e+05) (4.677454e+00 -5.334712e-20 2.044851e+00)) ((-2.315024e+04 -2.554698e+05 -5.683955e+02) (-1.022426e-01 3.690816e+00 2.338727e-01))
4.36511e-05   	((-7.796813e+03 -1.434511e-14 2.400113e+05) (4.623110e+00 -4.887239e-20 1.959135e+00)) ((-1.200057e+04 -1.373544e+05 -3.898406e+02) (-9.795676e-02 3.678375e+00 2.311555e-01))
6.43527e-05   	((-4.822901e+03 -9.521735e-15 1.631019e+05) (4.577231e+00 -4.344210e-20 1.897685e+00)) ((-8.155093e+03 -9.236352e+04 -2.411451e+02) (-9.488423e-02 3.663794e+00 2.288616e-01))
8.91792e-05   	((-2.341830e+03 -6.312614e-15 1.032095e+05) (4.548601e+00 -4.138212e-20 1.843186e+00)) ((-5.160476e+03 -5.607594e+04 -1.170915e+02) (-9.215930e-02 3.662914e+00 2.274301e-01))
0.000118941   	((-1.240342e+03 -4.765214e-15 7.560020e+04) (4.524522e+00 -3.944749e-20 1.794853e+00)) ((-3.780010e+03 -3.984473e+04 -6.201711e+01) (-8.974264e-02 3.665146e+00 2.262261e-01))
0.000154634   	((-1.002055e+03 -3.527631e-15 5.591699e+04) (4.497294e+00 -3.960061e-20 1.749280e+00)) ((-2.795849e+03 -3.012189e+04 -5.010277e+01) (-8.746401e-02 3.664066e+00 2.248647e-01))
0.000197405   	((-1.293894e+03 -3.299195e-15 5.290112e+04) (4.463795e+00 -3.692986e-20 1.702650e+00)) ((-2.645056e+03 -2.951160e+04 -6.469469e+01) (-8.513252e-02 3.657246e+00 2.231898e-01))
0.000248707   	((-1.120972e+03 -2.747602e-15 4.352165e+04) (4.432725e+00 -3.250593e-20 1.653268e+00)) ((-2.176083e+03 -2.463833e+04 -5.604859e+01) (-8.266339e-02 3.654134e+00 2.216362e-01))
0.000310237   	((3.029651e+01 -1.511229e-15 2.499055e+04) (4.417181e+00 -2.958832e-20 1.602308e+00)) ((-1.249528e+03 -1.221412e+04 1.514826e+00) (-8.011541e-02 3.667983e+00 2.208591e-01))
0.000383982   	((1.563480e+02 -1.180828e-15 1.893360e+04) (4.411930e+00 -2.179570e-20 1.553942e+00)) ((-9.466800e+02 -9.129869e+03 7.817402e+00) (-7.769712e-02 3.692686e+00 2.205965e-01))
0.000472342   	((9.626582e+01 -9.784710e-16 1.575896e+04) (4.420327e+00 -1.840848e-20 1.504309e+00)) ((-7.879482e+02 -7.482507e+03 4.813291e+00) (-7.521545e-02 3.730931e+00 2.210164e-01))
0.000577897   	((1.004232e+02 -8.613746e-16 1.368892e+04) (4.452756e+00 -1.389791e-20 1.458350e+00)) ((-6.844461e+02 -6.460987e+03 5.021162e+00) (-7.291748e-02 3.791966e+00 2.226378e-01))
0.000704014   	((1.800093e+02 -6.737198e-16 1.088427e+04) (4.522780e+00 -8.059532e-21 1.419069e+00)) ((-5.442136e+02 -4.975745e+03 9.000464e+00) (-7.095343e-02 3.888156e+00 2.261390e-01))
0.000854764   	((4.900538e+01 -5.569246e-16 9.533264e+03) (4.630043e+00 -5.822130e-21 1.390111e+00)) ((-4.766632e+02 -4.484183e+03 2.450269e+00) (-6.950554e-02 4.017129e+00 2.315021e-01))
0.000951457   	((1.011224e+02 -7.251565e-16 1.163743e+04) (4.719248e+00 -4.630976e-21 1.377928e+00)) ((-5.818713e+02 -5.233774e+03 5.056120e+00) (-6.889640e-02 4.118547e+00 2.359624e-01))
0.00105787    	((1.204516e+02 -6.787293e-16 1.081988e+04) (4.862469e+00 -3.054926e-21 1.385331e+00)) ((-5.409938e+02 -4.855528e+03 6.022582e+00) (-6.926653e-02 4.265038e+00 2.431234e-01))
0.00117337    	((1.642896e+02 -6.307227e-16 1.005893e+04) (5.072052e+00 -1.712192e-21 1.423284e+00)) ((-5.029467e+02 -4.422751e+03 8.214478e+00) (-7.116421e-02 4.467130e+00 2.536026e-01))
0.00129889    	((2.801422e+02 -5.706222e-16 9.449535e+03) (5.313643e+00 -5.761081e-21 1.487642e+00)) ((-4.724768e+02 -4.080111e+03 1.400711e+01) (-7.438209e-02 4.697702e+00 2.656822e-01))
0.0014344     	((2.524570e+02 -6.235600e-16 1.012183e+04) (5.588786e+00 -8.638001e-21 1.563256e+00)) ((-5.060913e+02 -4.386594e+03 1.262285e+01) (-7.816280e-02 4.961457e+00 2.794393e-01))
0.00157944    	((5.306262e+02 -5.907530e-16 9.478885e+03) (5.906991e+00 -1.536879e-20 1.644904e+00)) ((-4.739443e+02 -3.740020e+03 2.653131e+01) (-8.224520e-02 5.269757e+00 2.953495e-01))
0.00175322    	((1.069424e+03 -6.658485e-16 1.008010e+04) (6.307647e+00 -1.705704e-20 1.756953e+00)) ((-5.040048e+02 -3.279420e+03 5.347119e+01) (-8.784764e-02 5.660823e+00 3.153824e-01))
0.00196057    	((1.280901e+02 -5.127189e-16 8.107782e+03) (6.680388e+00 -2.205109e-20 1.817959e+00)) ((-4.053891e+02 -3.384805e+03 6.404507e+00) (-9.089796e-02 6.025988e+00 3.340194e-01))
0.00203451    	((3.167531e+02 -8.296120e-16 1.299160e+04) (6.801331e+00 -2.233898e-20 1.853255e+00)) ((-6.495801e+02 -5.420754e+03 1.583766e+01) (-9.266275e-02 6.144653e+00 3.400665e-01))
0.00210844    	((3.213420e+02 -7.671095e-16 1.220255e+04) (6.917614e+00 -2.032510e-20 1.869296e+00)) ((-6.101277e+02 -4.839475e+03 1.606710e+01) (-9.346478e-02 6.260587e+00 3.458807e-01))
0.00218268    	((5.891151e+02 -9.719312e-16 1.520717e+04) (7.041445e+00 -1.954954e-20 1.890982e+00)) ((-7.603585e+02 -5.654550e+03 2.945575e+01) (-9.454909e-02 6.384295e+00 3.520723e-01))
0.00224723    	((2.485434e+03 -2.619073e-15 4.037487e+04) (7.202314e+00 -1.870295e-20 1.959127e+00)) ((-2.018743e+03 -1.305747e+04 1.242717e+02) (-9.795634e-02 6.543745e+00 3.601157e-01))
0.00229275    	((5.916769e+02 -8.445091e-16 1.413303e+04) (7.331424e+00 -1.821408e-20 1.949004e+00)) ((-7.066514e+02 -5.599952e+03 2.958385e+01) (-9.745018e-02 6.677737e+00 3.665712e-01))
0.00234408    	((4.446669e+02 -6.607635e-16 1.173133e+04) (7.442881e+00 -1.886837e-20 1.986772e+00)) ((-5.865667e+02 -4.901635e+03 2.223334e+01) (-9.933861e-02 6.790846e+00 3.721440e-01))
0.0024014     	((5.239476e+02 -6.003501e-16 1.157031e+04) (7.585602e+00 -2.196924e-20 2.022590e+00)) ((-5.785155e+02 -4.791950e+03 2.619738e+01) (-1.011295e-01 6.935647e+00 3.792801e-01))
0.00246516    	((7.786741e+02 -5.149348e-16 9.128037e+03) (7.771631e+00 -8.663726e-21 2.119219e+00)) ((-4.564019e+02 -3.633681e+03 3.893371e+01) (-1.059609e-01 7.121969e+00 3.885815e-01))
0.00253587    	((5.387721e+02 -4.621518e-16 8.237020e+03) (8.003653e+00 -1.208191e-21 2.182970e+00)) ((-4.118510e+02 -3.123739e+03 2.693861e+01) (-1.091485e-01 7.358092e+00 4.001827e-01))
0.00261349    	((4.865199e+02 -4.237094e-16 7.444574e+03) (8.296328e+00 9.470146e-21 2.243383e+00)) ((-3.722287e+02 -2.789964e+03 2.432599e+01) (-1.121692e-01 7.656891e+00 4.148164e-01))
0.00269956    	((8.505471e+02 -3.624486e-16 6.989862e+03) (8.584908e+00 -1.021733e-20 2.370461e+00)) ((-3.494931e+02 -2.424574e+03 4.252735e+01) (-1.185230e-01 7.949453e+00 4.292454e-01))
0.00279257    	((5.489744e+02 -3.587073e-16 6.423791e+03) (9.220501e+00 -2.652446e-20 2.373300e+00)) ((-3.211895e+02 -2.330697e+03 2.744872e+01) (-1.186650e-01 8.598864e+00 4.610250e-01))
0.00289379    	((4.731286e+02 -3.588736e-16 6.186524e+03) (9.953274e+00 -1.262359e-21 2.256110e+00)) ((-3.093262e+02 -2.305229e+03 2.365643e+01) (-1.128055e-01 9.355783e+00 4.976637e-01))
0.00300487    	((6.551632e+03 -8.624259e-16 1.282907e+04) (1.045052e+01 2.772490e-20 2.328041e+00)) ((-6.414534e+02 -2.848700e+02 3.275816e+02) (-1.164020e-01 9.863290e+00 5.225261e-01))
0.00313662    	((2.254025e+03 4.767225e-17 7.719844e+03) (1.077359e+01 4.843695e-20 2.500276e+00)) ((-3.859922e+02 -1.647172e+03 1.127012e+02) (-1.250138e-01 1.018544e+01 5.386797e-01))
0.00329422    	((-4.697238e+01 -1.926780e-16 3.389233e+03) (1.105518e+01 5.041498e-20 2.473549e+00)) ((-1.694617e+02 -1.671639e+03 -2.348619e+00) (-1.236775e-01 1.047905e+01 5.527591e-01))
0.00336623    	((-6.485688e+01 -2.445598e-16 4.236667e+03) (1.115364e+01 4.948089e-20 2.437123e+00)) ((-2.118334e+02 -2.089425e+03 -3.242844e+00) (-1.218561e-01 1.058346e+01 5.576819e-01))
0.00343918    	((-4.543761e+01 -2.417595e-16 4.182363e+03) (1.124329e+01 4.518702e-20 2.384563e+00)) ((-2.091181e+02 -2.024296e+03 -2.271880e+00) (-1.192281e-01 1.067983e+01 5.621645e-01))
0.00351378    	((5.649347e+01 1.354989e-16 3.763864e+03) (1.132383e+01 3.135470e-20 2.362012e+00)) ((-1.881932e+02 -1.810326e+03 2.824674e+00) (-1.181006e-01 1.076275e+01 5.661916e-01))
0.00359011    	((7.581073e+01 2.494313e-16 3.545200e+03) (1.142201e+01 7.249491e-21 2.361055e+00)) ((-1.772600e+02 -1.722643e+03 3.790536e+00) (-1.180528e-01 1.086116e+01 5.711003e-01))
0.00366825    	((6.062575e+01 -1.617212e-16 4.056552e+03) (1.148580e+01 -8.878205e-21 2.328891e+00)) ((-2.028276e+02 -1.769322e+03 3.031287e+00) (-1.164446e-01 1.092688e+01 5.742901e-01))
0.00374791    	((1.095054e+02 -2.124138e-16 4.542216e+03) (1.155108e+01 -1.838215e-20 2.286150e+00)) ((-2.271108e+02 -1.865020e+03 5.475271e+00) (-1.143075e-01 1.099548e+01 5.775541e-01))
0.00382837    	((1.385717e+02 6.435322e-17 3.878680e+03) (1.161891e+01 -2.596523e-20 2.230863e+00)) ((-1.939340e+02 -1.641618e+03 6.928584e+00) (-1.115431e-01 1.106830e+01 5.809456e-01))
0.00391005    	((1.251199e+02 -1.026131e-16 4.066998e+03) (1.169885e+01 -3.537901e-20 2.164577e+00)) ((-2.033499e+02 -1.680008e+03 6.255995e+00) (-1.082289e-01 1.115533e+01 5.849427e-01))
0.00399429    	((1.065285e+02 -1.744308e-16 3.897251e+03) (1.177431e+01 -3.764962e-20 2.099488e+00)) ((-1.948625e+02 -1.594137e+03 5.326425e+00) (-1.049744e-01 1.123785e+01 5.887154e-01))
0.00407853    	((9.951890e+01 -1.805516e-16 3.857516e+03) (1.184320e+01 -3.928158e-20 2.036918e+00)) ((-1.928758e+02 -1.589090e+03 4.975945e+00) (-1.018459e-01 1.131360e+01 5.921602e-01))
0.00416018    	((1.092934e+02 -1.873076e-16 3.870410e+03) (1.190480e+01 -3.911696e-20 1.990290e+00)) ((-1.935205e+02 -1.573588e+03 5.464672e+00) (-9.951449e-02 1.138042e+01 5.952400e-01))
0.00423977    	((2.901935e+02 1.842183e-16 2.652393e+03) (1.209485e+01 -2.770819e-20 2.006051e+00)) ((-1.326196e+02 -1.243564e+03 1.450968e+01) (-1.003025e-01 1.157431e+01 6.047424e-01))
0.00431308    	((1.214844e+02 -1.585511e-16 3.777793e+03) (1.217395e+01 -2.731310e-20 1.989008e+00)) ((-1.888896e+02 -1.549863e+03 6.074220e+00) (-9.945041e-02 1.165694e+01 6.086974e-01))
0.00439478    	((1.563417e+02 -8.917711e-17 3.490604e+03) (1.226192e+01 -2.607058e-20 1.972146e+00)) ((-1.745302e+02 -1.426019e+03 7.817086e+00) (-9.860730e-02 1.174988e+01 6.130958e-01))
0.00447648    	((3.342661e+02 2.832581e-16 3.770475e+03) (1.235599e+01 -3.345860e-20 1.946352e+00)) ((-1.885237e+02 -1.530244e+03 1.671331e+01) (-9.731758e-02 1.184930e+01 6.177996e-01))
0.00456726    	((1.124773e+02 -1.853548e-16 3.557975e+03) (1.243283e+01 -3.362238e-20 1.932396e+00)) ((-1.778988e+02 -1.431458e+03 5.623863e+00) (-9.661978e-02 1.193065e+01 6.216413e-01))
0.00466879    	((1.057220e+02 -1.812637e-16 3.353340e+03) (1.251191e+01 -3.138899e-20 1.911278e+00)) ((-1.676670e+02 -1.356178e+03 5.286099e+00) (-9.556392e-02 1.201691e+01 6.255953e-01))
0.00477909    	((1.002661e+02 -1.754931e-16 3.253861e+03) (1.258181e+01 -2.791848e-20 1.881153e+00)) ((-1.626930e+02 -1.311492e+03 5.013306e+00) (-9.405767e-02 1.209817e+01 6.290903e-01))
0.00485715    	((1.416589e+02 -8.936345e-18 3.204119e+03) (1.262665e+01 -3.027476e-20 1.861692e+00)) ((-1.602059e+02 -1.332422e+03 7.082946e+00) (-9.308458e-02 1.215271e+01 6.313324e-01))
0.00494417    	((1.201918e+02 -1.324295e-16 3.233505e+03) (1.266866e+01 -3.092460e-20 1.830405e+00)) ((-1.616753e+02 -1.311805e+03 6.009591e+00) (-9.152025e-02 1.220937e+01 6.334329e-01))
0.00504131    	((1.471983e+02 -9.579387e-17 3.027509e+03) (1.271613e+01 -3.290268e-20 1.785760e+00)) ((-1.513755e+02 -1.231982e+03 7.359915e+00) (-8.928799e-02 1.227630e+01 6.358065e-01))
0.00514447    	((1.289189e+02 -1.150898e-16 3.010989e+03) (1.278332e+01 -3.490779e-20 1.725902e+00)) ((-1.505495e+02 -1.218275e+03 6.445946e+00) (-8.629508e-02 1.236650e+01 6.391660e-01))
0.00524836    	((2.973900e+02 1.037006e-16 1.817766e+03) (1.301983e+01 -2.492250e-20 1.747962e+00)) ((-9.088828e+01 -9.086353e+02 1.486950e+01) (-8.739811e-02 1.262089e+01 6.509915e-01))
0.00535224    	((1.187495e+02 -1.301008e-16 2.948984e+03) (1.313260e+01 -2.694879e-20 1.723512e+00)) ((-1.474492e+02 -1.189572e+03 5.937474e+00) (-8.617562e-02 1.275050e+01 6.566298e-01))
0.00545687    	((1.173466e+02 -1.333006e-16 2.943680e+03) (1.324135e+01 -2.303906e-20 1.693234e+00)) ((-1.471840e+02 -1.179980e+03 5.867331e+00) (-8.466168e-02 1.287526e+01 6.620673e-01))
0.00556225    	((1.179096e+02 -1.303765e-16 2.909099e+03) (1.334548e+01 -1.670538e-20 1.666488e+00)) ((-1.454550e+02 -1.166845e+03 5.895481e+00) (-8.332442e-02 1.299351e+01 6.672739e-01))
0.00566841    	((1.166604e+02 -1.284853e-16 2.860371e+03) (1.344576e+01 -8.695170e-21 1.643545e+00)) ((-1.430185e+02 -1.146045e+03 5.833018e+00) (-8.217723e-02 1.310632e+01 6.722882e-01))
0.00577457    	((1.152174e+02 -1.281244e-16 2.831143e+03) (1.354090e+01 2.371286e-23 1.621833e+00)) ((-1.415572e+02 -1.132015e+03 5.760868e+00) (-8.109166e-02 1.321281e+01 6.770448e-01))
0.00588153    	((1.154404e+02 -1.256589e-16 2.797336e+03) (1.363435e+01 9.887216e-21 1.600658e+00)) ((-1.398668e+02 -1.118123e+03 5.772022e+00) (-8.003292e-02 1.331711e+01 6.817173e-01))
0.00598931    	((1.144089e+02 -1.256500e-16 2.763774e+03) (1.372737e+01 1.998371e-20 1.579531e+00)) ((-1.381887e+02 -1.100044e+03 5.720443e+00) (-7.897654e-02 1.342075e+01 6.863685e-01))
0.00609792    	((1.146339e+02 -1.239152e-16 2.735588e+03) (1.382287e+01 2.657282e-20 1.558234e+00)) ((-1.367794e+02 -1.086824e+03 5.731695e+00) (-7.791171e-02 1.352691e+01 6.911435e-01))
0.00620653    	((1.153263e+02 -1.227166e-16 2.718861e+03) (1.392103e+01 2.983826e-20 1.536222e+00)) ((-1.359430e+02 -1.078191e+03 5.766317e+00) (-7.681112e-02 1.363590e+01 6.960515e-01))
0.006316      	((1.137573e+02 -1.227245e-16 2.691959e+03) (1.402726e+01 3.293930e-20 1.515150e+00)) ((-1.345980e+02 -1.066459e+03 5.687866e+00) (-7.575750e-02 1.375344e+01 7.013631e-01))
0.00642635    	((1.126992e+02 -1.222962e-16 2.662191e+03) (1.413716e+01 3.456376e-20 1.494778e+00)) ((-1.331096e+02 -1.051831e+03 5.634958e+00) (-7.473890e-02 1.387513e+01 7.068582e-01))
0.00653671    	((1.130065e+02 -1.199285e-16 2.630333e+03) (1.424345e+01 3.488443e-20 1.472620e+00)) ((-1.315167e+02 -1.038227e+03 5.650324e+00) (-7.363102e-02 1.399372e+01 7.121726e-01))
0.00664797    	((1.140818e+02 -1.189283e-16 2.583888e+03) (1.433080e+01 3.607894e-20 1.472109e+00)) ((-1.291944e+02 -1.021255e+03 5.704090e+00) (-7.360544e-02 1.408883e+01 7.165402e-01))
0.00675924    	((2.693347e+02 3.346941e-17 1.374873e+03) (1.451537e+01 3.571675e-20 1.494358e+00)) ((-6.874367e+01 -7.097204e+02 1.346674e+01) (-7.471788e-02 1.428375e+01 7.257684e-01))
0.00687145    	((1.108533e+02 -1.117771e-16 2.639207e+03) (1.457048e+01 3.450719e-20 1.498811e+00)) ((-1.319603e+02 -1.092362e+03 5.542663e+00) (-7.494054e-02 1.434721e+01 7.285239e-01))
0.00698366    	((8.821275e+01 -1.136856e-16 2.904186e+03) (1.460915e+01 3.560689e-20 1.497952e+00)) ((-1.452093e+02 -1.298358e+03 4.410637e+00) (-7.489759e-02 1.439338e+01 7.304573e-01))
0.00709685    	((1.088878e+02 -1.145539e-16 2.615284e+03) (1.465692e+01 3.753373e-20 1.486281e+00)) ((-1.307642e+02 -1.075770e+03 5.444390e+00) (-7.431404e-02 1.445018e+01 7.328459e-01))
0.00721003    	((1.096839e+02 -1.135607e-16 2.551663e+03) (1.470069e+01 3.822276e-20 1.472072e+00)) ((-1.275832e+02 -1.032735e+03 5.484193e+00) (-7.360359e-02 1.450322e+01 7.350346e-01))
0.00732423    	((1.086317e+02 -1.128382e-16 2.518369e+03) (1.474800e+01 4.044435e-20 1.458436e+00)) ((-1.259185e+02 -1.012206e+03 5.431585e+00) (-7.292181e-02 1.456021e+01 7.373998e-01))
0.00743842    	((1.072346e+02 -1.125241e-16 2.508929e+03) (1.479684e+01 4.318330e-20 1.445045e+00)) ((-1.254464e+02 -1.007591e+03 5.361728e+00) (-7.225223e-02 1.461905e+01 7.398418e-01))
0.00754055    	((1.075506e+02 -1.131453e-16 2.532205e+03) (1.484558e+01 4.532909e-20 1.433264e+00)) ((-1.266103e+02 -1.020936e+03 5.377531e+00) (-7.166320e-02 1.467711e+01 7.422790e-01))
0.00765382    	((1.039015e+02 -1.121335e-16 2.480075e+03) (1.489883e+01 4.731253e-20 1.420645e+00)) ((-1.240037e+02 -9.954784e+02 5.195075e+00) (-7.103223e-02 1.474079e+01 7.449416e-01))
0.0077567     	((1.026910e+02 -1.144255e-16 2.505609e+03) (1.494651e+01 4.872996e-20 1.409439e+00)) ((-1.252804e+02 -1.007208e+03 5.134551e+00) (-7.047196e-02 1.479800e+01 7.473254e-01))
0.00785959    	((1.014387e+02 -1.147458e-16 2.501580e+03) (1.499247e+01 4.963848e-20 1.398171e+00)) ((-1.250790e+02 -1.005316e+03 5.071935e+00) (-6.990855e-02 1.485361e+01 7.496237e-01))
0.00796247    	((9.863819e+01 -1.160123e-16 2.489239e+03) (1.503518e+01 5.043589e-20 1.387273e+00)) ((-1.244619e+02 -9.993383e+02 4.931909e+00) (-6.936367e-02 1.490586e+01 7.517588e-01))
0.00806624    	((9.581562e+01 -1.170192e-16 2.472803e+03) (1.507428e+01 5.090990e-20 1.376575e+00)) ((-1.236402e+02 -9.906869e+02 4.790781e+00) (-6.882876e-02 1.495448e+01 7.537140e-01))
0.00817002    	((9.315230e+01 -1.184227e-16 2.466564e+03) (1.510892e+01 5.078313e-20 1.365970e+00)) ((-1.233282e+02 -9.868924e+02 4.657615e+00) (-6.829851e-02 1.499850e+01 7.554459e-01))
0.00827379    	((9.052453e+01 -1.194585e-16 2.459203e+03) (1.513944e+01 5.202220e-20 1.355766e+00)) ((-1.229602e+02 -9.831381e+02 4.526226e+00) (-6.778831e-02 1.503829e+01 7.569718e-01))
0.00837849    	((8.920564e+01 -1.185322e-16 2.441442e+03) (1.517296e+01 5.495850e-20 1.346950e+00)) ((-1.220721e+02 -9.762445e+02 4.460282e+00) (-6.734750e-02 1.508134e+01 7.586479e-01))
0.00848318    	((8.707489e+01 -1.190783e-16 2.437162e+03) (1.520348e+01 5.770605e-20 1.337616e+00)) ((-1.218581e+02 -9.733490e+02 4.353745e+00) (-6.688082e-02 1.512160e+01 7.601740e-01))
0.00858884    	((8.598871e+01 -1.182163e-16 2.426775e+03) (1.523040e+01 5.970996e-20 1.327865e+00)) ((-1.213387e+02 -9.685955e+02 4.299436e+00) (-6.639325e-02 1.515847e+01 7.615200e-01))
0.0086945     	((8.544839e+01 -1.153727e-16 2.415757e+03) (1.525047e+01 6.205442e-20 1.323673e+00)) ((-1.207879e+02 -9.647114e+02 4.272419e+00) (-6.618366e-02 1.518707e+01 7.625233e-01))
0.00880016    	((8.593210e+01 -1.103844e-16 2.388540e+03) (1.526450e+01 6.004930e-20 1.325781e+00)) ((-1.194270e+02 -9.558644e+02 4.296605e+00) (-6.628904e-02 1.520774e+01 7.632248e-01))
0.00890582    	((9.039782e+01 -8.911947e-17 2.340991e+03) (1.527909e+01 5.640443e-20 1.332009e+00)) ((-1.170496e+02 -9.450072e+02 4.519891e+00) (-6.660045e-02 1.522716e+01 7.639543e-01))
0.00901249    	((1.989752e+02 3.751658e-16 1.141089e+03) (1.534912e+01 5.843353e-20 1.333339e+00)) ((-5.705445e+01 -6.379603e+02 9.948760e+00) (-6.666695e-02 1.530328e+01 7.674561e-01))
0.00911917    	((8.666196e+01 -9.247562e-17 2.343478e+03) (1.537544e+01 6.420697e-20 1.327931e+00)) ((-1.171739e+02 -9.455802e+02 4.333098e+00) (-6.639654e-02 1.532930e+01 7.687722e-01))
0.00922584    	((8.510430e+01 -9.113001e-17 2.337664e+03) (1.540137e+01 5.661779e-20 1.333232e+00)) ((-1.168832e+02 -9.453305e+02 4.255215e+00) (-6.666158e-02 1.534960e+01 7.700683e-01))
0.00933252    	((8.390781e+01 -9.168549e-17 2.331562e+03) (1.542622e+01 5.282065e-20 1.342933e+00)) ((-1.165781e+02 -9.420011e+02 4.195391e+00) (-6.714664e-02 1.536814e+01 7.713108e-01))
0.00943919    	((8.331249e+01 -9.252673e-17 2.323337e+03) (1.545161e+01 4.424685e-20 1.353133e+00)) ((-1.161669e+02 -9.367996e+02 4.165625e+00) (-6.765665e-02 1.539002e+01 7.725806e-01))
0.00954696    	((8.254311e+01 -9.385612e-17 2.310302e+03) (1.548468e+01 3.161242e-20 1.364349e+00)) ((-1.155151e+02 -9.291471e+02 4.127155e+00) (-6.821747e-02 1.542323e+01 7.742342e-01))
0.00965472    	((8.133920e+01 -9.553257e-17 2.306132e+03) (1.553438e+01 2.518614e-20 1.380348e+00)) ((-1.153066e+02 -9.262459e+02 4.066960e+00) (-6.901740e-02 1.547572e+01 7.767189e-01))
0.00976248    	((8.006437e+01 -9.737925e-17 2.309347e+03) (1.558834e+01 1.858683e-20 1.393040e+00)) ((-1.154673e+02 -9.273704e+02 4.003219e+00) (-6.965201e-02 1.553436e+01 7.794172e-01))
0.00987025    	((7.944797e+01 -9.775902e-17 2.309049e+03) (1.564706e+01 1.365041e-20 1.403766e+00)) ((-1.154524e+02 -9.271411e+02 3.972398e+00) (-7.018829e-02 1.559912e+01 7.823529e-01))
0.00997801    	((7.827239e+01 -9.810152e-17 2.296949e+03) (1.570751e+01 1.006439e-20 1.413705e+00)) ((-1.148475e+02 -9.205990e+02 3.913619e+00) (-7.068525e-02 1.566664e+01 7.853756e-01))
0.0100869     	((7.801903e+01 -9.665751e-17 2.275023e+03) (1.576782e+01 6.031372e-21 1.424500e+00)) ((-1.137511e+02 -9.092058e+02 3.900951e+00) (-7.122502e-02 1.573456e+01 7.883908e-01))
0.0101959     	((7.855517e+01 -9.443925e-17 2.263908e+03) (1.582966e+01 1.514941e-21 1.437875e+00)) ((-1.131954e+02 -9.038924e+02 3.927759e+00) (-7.189375e-02 1.580429e+01 7.914831e-01))
0.0103048     	((7.845468e+01 -9.302948e-17 2.255032e+03) (1.589625e+01 -3.975656e-21 1.455239e+00)) ((-1.127516e+02 -8.999849e+02 3.922734e+00) (-7.276195e-02 1.587903e+01 7.948124e-01))
0.0104137     	((7.897341e+01 -8.930024e-17 2.231881e+03) (1.596609e+01 -1.211996e-20 1.473513e+00)) ((-1.115940e+02 -8.904533e+02 3.948671e+00) (-7.367565e-02 1.595735e+01 7.983045e-01))
0.0105227     	((7.865225e+01 -8.996015e-17 2.226687e+03) (1.603513e+01 -2.059409e-20 1.492396e+00)) ((-1.113343e+02 -8.865718e+02 3.932613e+00) (-7.461980e-02 1.603510e+01 8.017566e-01))
0.0106329     	((7.831878e+01 -8.985302e-17 2.214289e+03) (1.610272e+01 -3.125927e-20 1.511623e+00)) ((-1.107144e+02 -8.800957e+02 3.915939e+00) (-7.558116e-02 1.611172e+01 8.051361e-01))
0.0107431     	((7.816101e+01 -8.976095e-17 2.200941e+03) (1.616711e+01 -4.151867e-20 1.530483e+00)) ((-1.100470e+02 -8.729132e+02 3.908050e+00) (-7.652417e-02 1.618533e+01 8.083554e-01))
0.0108533     	((7.806359e+01 -9.088340e-17 2.196855e+03) (1.623122e+01 -4.812867e-20 1.548658e+00)) ((-1.098428e+02 -8.700257e+02 3.903180e+00) (-7.743291e-02 1.625903e+01 8.115612e-01))
0.0109635     	((7.708610e+01 -9.422032e-17 2.196010e+03) (1.628940e+01 -5.467082e-20 1.566961e+00)) ((-1.098005e+02 -8.694389e+02 3.854305e+00) (-7.834804e-02 1.632636e+01 8.144701e-01))
0.0110737     	((7.600145e+01 -9.875223e-17 2.179883e+03) (1.633513e+01 -6.123820e-20 1.588782e+00)) ((-1.089941e+02 -8.611765e+02 3.800073e+00) (-7.943909e-02 1.637930e+01 8.167565e-01))
0.0111839     	((7.503478e+01 -1.006306e-16 2.186288e+03) (1.637511e+01 -6.570052e-20 1.600111e+00)) ((-1.093144e+02 -8.630385e+02 3.751739e+00) (-8.000556e-02 1.642834e+01 8.187556e-01))
0.0112941     	((7.412101e+01 -1.012261e-16 2.181065e+03) (1.640841e+01 -6.717319e-20 1.603280e+00)) ((-1.090532e+02 -8.606780e+02 3.706051e+00) (-8.016401e-02 1.647202e+01 8.204207e-01))
0.0114057     	((7.416477e+01 -1.002714e-16 2.156260e+03) (1.643503e+01 -6.661129e-20 1.599804e+00)) ((-1.078130e+02 -8.479635e+02 3.708239e+00) (-7.999018e-02 1.651035e+01 8.217517e-01))
0.0115173     	((7.457555e+01 -1.008384e-16 2.155603e+03) (1.645636e+01 -6.479872e-20 1.590943e+00)) ((-1.077802e+02 -8.468724e+02 3.728778e+00) (-7.954717e-02 1.654377e+01 8.228182e-01))
0.0116289     	((7.433454e+01 -9.993081e-17 2.142618e+03) (1.647661e+01 -6.129476e-20 1.575400e+00)) ((-1.071309e+02 -8.407737e+02 3.716727e+00) (-7.876999e-02 1.657622e+01 8.238306e-01))
0.0117406     	((7.470290e+01 -9.851100e-17 2.126124e+03) (1.649273e+01 -5.702945e-20 1.556634e+00)) ((-1.063062e+02 -8.323997e+02 3.735145e+00) (-7.783172e-02 1.660437e+01 8.246365e-01))
0.0118522     	((7.496812e+01 -9.769319e-17 2.116713e+03) (1.650199e+01 -5.112408e-20 1.533364e+00)) ((-1.058357e+02 -8.278941e+02 3.748406e+00) (-7.666818e-02 1.662556e+01 8.250994e-01))
0.0119638     	((7.590379e+01 -9.486724e-17 2.099069e+03) (1.650564e+01 -4.657605e-20 1.509550e+00)) ((-1.049535e+02 -8.209045e+02 3.795190e+00) (-7.547752e-02 1.664089e+01 8.252818e-01))
0.0120754     	((7.549784e+01 -9.726911e-17 2.116539e+03) (1.650379e+01 -2.516230e-20 1.480748e+00)) ((-1.058269e+02 -8.295550e+02 3.774892e+00) (-7.403741e-02 1.665073e+01 8.251895e-01))
0.012187      	((7.442603e+01 -9.801434e-17 2.105803e+03) (1.649948e+01 4.298437e-21 1.447874e+00)) ((-1.052901e+02 -8.245856e+02 3.721302e+00) (-7.239370e-02 1.665821e+01 8.249739e-01))
0.0122986     	((7.540320e+01 -9.312466e-17 2.078102e+03) (1.650524e+01 2.238954e-20 1.409573e+00)) ((-1.039051e+02 -8.144291e+02 3.770160e+00) (-7.047863e-02 1.667779e+01 8.252619e-01))
0.0124102     	((8.307430e+01 -1.171710e-16 1.927627e+03) (1.654710e+01 3.367688e-20 1.338773e+00)) ((-9.638137e+01 -7.726552e+02 4.153715e+00) (-6.693864e-02 1.674359e+01 8.273550e-01))
0.0125235     	((1.328434e+02 -2.692218e-16 1.041223e+03) (1.658346e+01 3.298459e-20 1.345281e+00)) ((-5.206116e+01 -5.401295e+02 6.642171e+00) (-6.726405e-02 1.678509e+01 8.291730e-01))
0.0126368     	((7.709922e+01 -1.019979e-16 2.034626e+03) (1.661644e+01 3.669355e-20 1.316924e+00)) ((-1.017313e+02 -8.006411e+02 3.854961e+00) (-6.584618e-02 1.683168e+01 8.308219e-01))
0.0127501     	((7.431351e+01 -1.077890e-16 2.047325e+03) (1.665678e+01 3.858727e-20 1.291356e+00)) ((-1.023662e+02 -8.034652e+02 3.715676e+00) (-6.456781e-02 1.688583e+01 8.328391e-01))
0.0128634     	((7.358143e+01 -1.115551e-16 2.061475e+03) (1.670565e+01 3.931141e-20 1.270419e+00)) ((-1.030737e+02 -8.103647e+02 3.679072e+00) (-6.352096e-02 1.694856e+01 8.352824e-01))
0.0129766     	((7.239489e+01 -1.117083e-16 2.050789e+03) (1.676494e+01 3.889694e-20 1.254945e+00)) ((-1.025395e+02 -8.037481e+02 3.619745e+00) (-6.274727e-02 1.702179e+01 8.382468e-01))
0.0130899     	((7.257385e+01 -1.113924e-16 2.041080e+03) (1.683824e+01 3.730011e-20 1.246250e+00)) ((-1.020540e+02 -7.991374e+02 3.628693e+00) (-6.231249e-02 1.710920e+01 8.419119e-01))
0.0132032     	((7.233665e+01 -1.112262e-16 2.040023e+03) (1.694395e+01 3.374082e-20 1.256564e+00)) ((-1.020012e+02 -7.994687e+02 3.616832e+00) (-6.282821e-02 1.722913e+01 8.471977e-01))
0.0133165     	((7.232486e+01 -1.104285e-16 2.030103e+03) (1.719955e+01 2.947354e-20 1.349493e+00)) ((-1.015052e+02 -7.948936e+02 3.616243e+00) (-6.747464e-02 1.749983e+01 8.599776e-01))
0.0134298     	((7.221695e+01 -1.097415e-16 2.022541e+03) (1.786935e+01 2.750641e-20 1.713025e+00)) ((-1.011270e+02 -7.908838e+02 3.610848e+00) (-8.565125e-02 1.818472e+01 8.934677e-01))
0.013543      	((7.235045e+01 -1.091052e-16 2.014319e+03) (1.828147e+01 2.463677e-20 2.100114e+00)) ((-1.007160e+02 -7.867148e+02 3.617523e+00) (-1.050057e-01 1.860078e+01 9.140735e-01))
0.0136563     	((7.254782e+01 -1.099841e-16 2.020769e+03) (1.851622e+01 3.152642e-20 2.273630e+00)) ((-1.010385e+02 -7.912722e+02 3.627391e+00) (-1.136815e-01 1.884499e+01 9.258109e-01))
0.0137696     	((7.238418e+01 -1.092500e-16 2.002145e+03) (1.872499e+01 3.699802e-20 2.326311e+00)) ((-1.001072e+02 -7.835065e+02 3.619209e+00) (-1.163155e-01 1.906859e+01 9.362494e-01))
0.0138829     	((7.057392e+01 -1.084785e-16 2.010093e+03) (1.887278e+01 3.582299e-20 2.328058e+00)) ((-1.005046e+02 -7.911641e+02 3.528696e+00) (-1.164029e-01 1.922999e+01 9.436391e-01))
0.0139962     	((6.927563e+01 -1.081161e-16 2.018850e+03) (1.895436e+01 2.868101e-20 2.294457e+00)) ((-1.009425e+02 -7.975768e+02 3.463782e+00) (-1.147229e-01 1.932512e+01 9.477181e-01))
0.0141094     	((7.016775e+01 -1.073603e-16 2.004854e+03) (1.897440e+01 1.597829e-20 2.237714e+00)) ((-1.002427e+02 -7.858324e+02 3.508387e+00) (-1.118857e-01 1.935817e+01 9.487198e-01))
0.0142249     	((7.031475e+01 -1.063505e-16 1.996481e+03) (1.893667e+01 7.431145e-24 2.162914e+00)) ((-9.982403e+01 -7.791413e+02 3.515737e+00) (-1.081457e-01 1.933317e+01 9.468334e-01))
0.0143404     	((6.973311e+01 -1.058478e-16 1.999787e+03) (1.884774e+01 -1.605166e-20 2.070184e+00)) ((-9.998935e+01 -7.810015e+02 3.486655e+00) (-1.035092e-01 1.925641e+01 9.423871e-01))
0.0144559     	((6.928051e+01 -1.058647e-16 2.001075e+03) (1.873642e+01 -1.931324e-20 2.019112e+00)) ((-1.000537e+02 -7.803571e+02 3.464025e+00) (-1.009556e-01 1.915423e+01 9.368211e-01))
0.0145714     	((6.896893e+01 -1.046631e-16 1.987165e+03) (1.864808e+01 6.152082e-21 1.941988e+00)) ((-9.935827e+01 -7.718235e+02 3.448447e+00) (-9.709941e-02 1.907753e+01 9.324040e-01))
0.0146869     	((6.640900e+01 -1.037150e-16 2.008986e+03) (1.854745e+01 3.365130e-20 1.848645e+00)) ((-1.004493e+02 -7.908471e+02 3.320450e+00) (-9.243223e-02 1.898907e+01 9.273727e-01))
0.0148024     	((5.107969e+01 -1.055048e-16 2.197473e+03) (1.836499e+01 5.876497e-20 1.733078e+00)) ((-1.098736e+02 -9.365299e+02 2.553985e+00) (-8.665391e-02 1.881697e+01 9.182497e-01))
0.0149179     	((6.092562e+01 -1.052236e-16 2.068403e+03) (1.820027e+01 6.309883e-20 1.616812e+00)) ((-1.034201e+02 -8.414187e+02 3.046281e+00) (-8.084059e-02 1.866304e+01 9.100133e-01))
0.0150334     	((6.548764e+01 -1.034885e-16 2.005709e+03) (1.806588e+01 6.844481e-20 1.505312e+00)) ((-1.002854e+02 -7.925087e+02 3.274382e+00) (-7.526561e-02 1.854015e+01 9.032940e-01))
0.0151489     	((6.705047e+01 -1.039794e-16 1.999280e+03) (1.796466e+01 7.470001e-20 1.406989e+00)) ((-9.996401e+01 -7.865346e+02 3.352523e+00) (-7.034944e-02 1.845085e+01 8.982330e-01))
0.0152644     	((6.626573e+01 -1.030472e-16 1.989761e+03) (1.788239e+01 7.996150e-20 1.320132e+00)) ((-9.948804e+01 -7.828012e+02 3.313287e+00) (-6.600661e-02 1.838037e+01 8.941194e-01))
0.01538       	((6.634280e+01 -1.023724e-16 1.982791e+03) (1.781904e+01 8.122121e-20 1.246576e+00)) ((-9.913957e+01 -7.796066e+02 3.317140e+00) (-6.232882e-02 1.832872e+01 8.909522e-01))
0.0154955     	((6.614854e+01 -1.017606e-16 1.976050e+03) (1.777485e+01 8.011975e-20 1.183516e+00)) ((-9.880251e+01 -7.759008e+02 3.307427e+00) (-5.917579e-02 1.829625e+01 8.887425e-01))
0.015611      	((6.628856e+01 -1.011526e-16 1.967211e+03) (1.774956e+01 7.933790e-20 1.127416e+00)) ((-9.836054e+01 -7.708804e+02 3.314428e+00) (-5.637078e-02 1.828288e+01 8.874782e-01))
0.0157265     	((6.697945e+01 -1.014233e-16 1.950939e+03) (1.773678e+01 7.957580e-20 1.078663e+00)) ((-9.754693e+01 -7.641543e+02 3.348972e+00) (-5.393314e-02 1.828178e+01 8.868390e-01))
0.015842      	((6.680354e+01 -1.004367e-16 1.954898e+03) (1.773283e+01 8.004374e-20 1.035087e+00)) ((-9.774489e+01 -7.641218e+02 3.340177e+00) (-5.175437e-02 1.828930e+01 8.866416e-01))