# Forces      
# CofR        : (0.000000e+00 0.000000e+00 -1.000000e+00)
# Time        forces(pressure viscous)	moments(pressure viscous)
0             	((0.000000e+00 8.429467e-17 5.115908e-13) (5.115992e+00 -2.262440e-20 1.080778e+00)) ((8.881784e-15 -1.136868e-13 3.552714e-15) (-5.403892e-02 4.583286e+00 2.557996e-01))
1.19976e-05   	((7.911488e+04 -6.186297e-14 1.032243e+06) (5.147728e+00 -2.577634e-20 9.527239e-01)) ((-5.161213e+04 -3.328262e+05 3.955744e+03) (-4.763619e-02 4.672178e+00 2.573864e-01))
2.63878e-05   	((9.479133e+03 -1.113512e-14 1.647053e+05) (5.144248e+00 -2.732340e-20 9.074539e-01)) ((-8.235264e+03 -6.391009e+04 4.739566e+02) (-4.537270e-02 4.685511e+00 2.572124e-01))
4.36511e-05   	((4.609934e+03 -6.223826e-15 9.766065e+04) (5.146223e+00 -2.909500e-20 8.871753e-01)) ((-4.883032e+03 -3.944743e+04 2.304967e+02) (-4.435876e-02 4.696033e+00 2.573112e-01))
6.43527e-05   	((3.539341e+03 -4.222356e-15 6.326204e+04) (5.161446e+00 -3.007601e-20 8.733522e-01)) ((-3.163102e+03 -2.402579e+04 1.769670e+02) (-4.366761e-02 4.717232e+00 2.580723e-01))
8.91792e-05   	((2.500930e+03 -2.838361e-15 4.351942e+04) (5.181040e+00 -3.036102e-20 8.638023e-01)) ((-2.175971e+03 -1.643169e+04 1.250465e+02) (-4.319012e-02 4.741434e+00 2.590520e-01))
0.000118941   	((1.974168e+03 -2.038738e-15 3.186786e+04) (5.205925e+00 -3.054794e-20 8.567049e-01)) ((-1.593393e+03 -1.176206e+04 9.870842e+01) (-4.283524e-02 4.770212e+00 2.602963e-01))
0.000154634   	((1.742325e+03 -1.473104e-15 2.385568e+04) (5.237884e+00 -3.070462e-20 8.503667e-01)) ((-1.192784e+03 -8.527751e+03 8.711627e+01) (-4.251834e-02 4.805758e+00 2.618942e-01))
0.000197405   	((1.545927e+03 -1.001235e-15 1.889336e+04) (5.277978e+00 -3.089052e-20 8.453490e-01)) ((-9.446682e+02 -6.617693e+03 7.729635e+01) (-4.226745e-02 4.849184e+00 2.638989e-01))
0.000248707   	((1.308675e+03 -4.056065e-16 1.406865e+04) (5.327322e+00 -3.164686e-20 8.424565e-01)) ((-7.034323e+02 -4.928572e+03 6.543377e+01) (-4.212282e-02 4.901547e+00 2.663661e-01))
0.000310237   	((9.623878e+02 -6.109793e-16 1.155048e+04) (5.390022e+00 -3.149400e-20 8.388778e-01)) ((-5.775242e+02 -4.011481e+03 4.811939e+01) (-4.194389e-02 4.967247e+00 2.695011e-01))
0.000383982   	((1.134602e+03 -5.151110e-16 1.034757e+04) (5.476363e+00 -3.126703e-20 8.356355e-01)) ((-5.173785e+02 -3.319041e+03 5.673009e+01) (-4.178177e-02 5.056333e+00 2.738181e-01))
0.000472342   	((8.065364e+02 -3.739203e-16 8.086809e+03) (5.588615e+00 -2.938416e-20 8.319888e-01)) ((-4.043405e+02 -2.699339e+03 4.032682e+01) (-4.159944e-02 5.171145e+00 2.794307e-01))
0.000577897   	((9.901582e+02 -2.950689e-16 7.554823e+03) (5.745209e+00 -2.745077e-20 8.315457e-01)) ((-3.777411e+02 -2.314130e+03 4.950791e+01) (-4.157728e-02 5.329174e+00 2.872604e-01))
0.000704014   	((1.072046e+03 -3.899120e-17 6.210972e+03) (5.957847e+00 -2.688904e-20 8.396895e-01)) ((-3.105486e+02 -1.949941e+03 5.360230e+01) (-4.198448e-02 5.540818e+00 2.978923e-01))
0.000854764   	((1.002745e+03 -8.912753e-17 5.771121e+03) (6.251900e+00 -2.639079e-20 8.514634e-01)) ((-2.885561e+02 -1.647881e+03 5.013724e+01) (-4.257317e-02 5.831536e+00 3.125950e-01))
0.00103538    	((2.761925e+03 2.478079e-16 8.833469e+03) (6.714488e+00 -3.148256e-20 8.561914e-01)) ((-4.416734e+02 -1.568319e+03 1.380963e+02) (-4.280957e-02 6.292164e+00 3.357244e-01))
0.00125089    	((9.935636e+02 1.380577e-16 3.708036e+03) (7.192270e+00 -1.737240e-20 8.896570e-01)) ((-1.854018e+02 -1.066501e+03 4.967818e+01) (-4.448285e-02 6.765795e+00 3.596135e-01))
0.00150772    	((2.648892e+02 -1.297498e-16 3.331786e+03) (7.701734e+00 -1.341167e-20 9.249791e-01)) ((-1.665893e+02 -1.224391e+03 1.324446e+01) (-4.624896e-02 7.272054e+00 3.850867e-01))
0.00181593    	((3.778209e+02 -2.911205e-17 2.462254e+03) (8.247881e+00 -1.103437e-20 9.609975e-01)) ((-1.231127e+02 -8.914385e+02 1.889104e+01) (-4.804988e-02 7.815226e+00 4.123940e-01))
0.00217961    	((2.296848e+02 -7.316415e-17 2.468530e+03) (8.812201e+00 -8.300748e-21 9.955190e-01)) ((-1.234265e+02 -9.500230e+02 1.148424e+01) (-4.977595e-02 8.377424e+00 4.406100e-01))
0.00261425    	((1.396310e+02 -8.542720e-17 2.388310e+03) (9.385954e+00 -4.354783e-21 1.028757e+00)) ((-1.194155e+02 -9.575927e+02 6.981549e+00) (-5.143785e-02 8.948912e+00 4.692977e-01))
0.0031256     	((1.131484e+02 -9.200465e-17 4.199305e+03) (9.930290e+00 -2.680678e-21 1.095232e+00)) ((-2.099652e+02 -2.327817e+03 5.657421e+00) (-5.476162e-02 9.480296e+00 4.965145e-01))
0.00370748    	((8.099736e+01 -4.586660e-17 1.681276e+03) (1.041092e+01 -7.829107e-21 1.086708e+00)) ((-8.406382e+01 -6.461460e+02 4.049868e+00) (-5.433539e-02 9.961237e+00 5.205459e-01))
0.00399331    	((1.071803e+02 -5.988520e-17 1.715190e+03) (1.062139e+01 -8.945281e-21 1.087928e+00)) ((-8.575950e+01 -6.064161e+02 5.359013e+00) (-5.439638e-02 1.017123e+01 5.310695e-01))
0.00430113    	((1.337848e+02 -1.530550e-16 1.267526e+03) (1.081752e+01 -1.269296e-20 1.112321e+00)) ((-6.337632e+01 -4.317108e+02 6.689238e+00) (-5.561607e-02 1.036128e+01 5.408761e-01))
0.00464241    	((1.134989e+02 -4.737526e-17 1.391068e+03) (1.100076e+01 -1.388141e-20 1.116075e+00)) ((-6.955340e+01 -4.363983e+02 5.674943e+00) (-5.580376e-02 1.054390e+01 5.500380e-01))
0.00502635    	((1.412721e+02 3.384357e-17 1.031089e+03) (1.119117e+01 -1.621723e-20 1.107376e+00)) ((-5.155447e+01 -3.527639e+02 7.063605e+00) (-5.536880e-02 1.073779e+01 5.595584e-01))
0.00545417    	((1.069081e+02 -2.909785e-17 1.216081e+03) (1.137155e+01 -1.462071e-20 1.093776e+00)) ((-6.080404e+01 -3.743269e+02 5.345405e+00) (-5.468880e-02 1.092449e+01 5.685776e-01))
0.00580894    	((1.014794e+02 -3.435571e-17 1.273964e+03) (1.150264e+01 -1.220841e-20 1.078070e+00)) ((-6.369820e+01 -4.205573e+02 5.073969e+00) (-5.390350e-02 1.106217e+01 5.751319e-01))
0.00616372    	((1.016354e+02 -3.118261e-17 1.199214e+03) (1.161998e+01 -1.060665e-20 1.053714e+00)) ((-5.996068e+01 -3.843067e+02 5.081770e+00) (-5.268570e-02 1.118934e+01 5.809990e-01))
0.0065185     	((1.201780e+02 -7.778080e-17 9.050609e+02) (1.171591e+01 -7.179339e-21 1.060660e+00)) ((-4.525305e+01 -3.666933e+02 6.008899e+00) (-5.303298e-02 1.128576e+01 5.857956e-01))
0.00687327    	((8.500454e+01 -4.770469e-17 1.378812e+03) (1.178667e+01 -5.193173e-21 1.047920e+00)) ((-6.894061e+01 -5.263094e+02 4.250227e+00) (-5.239601e-02 1.136267e+01 5.893335e-01))
0.00722805    	((5.669896e+01 -8.666885e-17 1.864815e+03) (1.184185e+01 -2.955596e-21 1.031237e+00)) ((-9.324075e+01 -8.545557e+02 2.834948e+00) (-5.156186e-02 1.142474e+01 5.920927e-01))
0.00758283    	((5.681970e+01 -8.485517e-17 1.814967e+03) (1.188669e+01 -2.167706e-21 1.011179e+00)) ((-9.074833e+01 -8.269525e+02 2.840985e+00) (-5.055897e-02 1.147772e+01 5.943345e-01))
0.0079376     	((9.234776e+01 -2.566134e-17 1.104455e+03) (1.191944e+01 1.264864e-21 9.884409e-01)) ((-5.522273e+01 -3.626827e+02 4.617388e+00) (-4.942205e-02 1.151905e+01 5.959718e-01))
0.00829238    	((6.805910e+01 -4.921140e-17 1.383975e+03) (1.197496e+01 4.362815e-21 9.790646e-01)) ((-6.919876e+01 -6.491071e+02 3.402955e+00) (-4.895323e-02 1.157480e+01 5.987479e-01))
0.00864716    	((7.783821e+01 -3.617433e-17 1.243518e+03) (1.198844e+01 1.937711e-21 9.597626e-01)) ((-6.217592e+01 -4.890956e+02 3.891910e+00) (-4.798813e-02 1.159587e+01 5.994220e-01))
0.00900193    	((8.027259e+01 -3.309187e-17 1.166686e+03) (1.199766e+01 -1.115488e-22 9.387550e-01)) ((-5.833432e+01 -4.270439e+02 4.013629e+00) (-4.693775e-02 1.161363e+01 5.998829e-01))
0.0093254     	((8.219662e+01 -3.208236e-17 1.118234e+03) (1.200123e+01 -3.716762e-22 9.181863e-01)) ((-5.591168e+01 -3.967986e+02 4.109831e+00) (-4.590932e-02 1.162530e+01 6.000613e-01))
0.00964888    	((8.191456e+01 -3.094821e-17 1.093533e+03) (1.199965e+01 -2.367645e-22 8.971602e-01)) ((-5.467667e+01 -3.833735e+02 4.095728e+00) (-4.485801e-02 1.163181e+01 5.999824e-01))
0.00997235    	((8.033659e+01 -3.062850e-17 1.084105e+03) (1.199156e+01 3.544109e-22 8.767225e-01)) ((-5.420524e+01 -3.814565e+02 4.016830e+00) (-4.383612e-02 1.163127e+01 5.995781e-01))
0.0102958     	((7.997302e+01 -2.958536e-17 1.062713e+03) (1.197291e+01 1.492750e-21 8.577728e-01)) ((-5.313567e+01 -3.708935e+02 3.998651e+00) (-4.288864e-02 1.161941e+01 5.986453e-01))
0.0106193     	((7.938460e+01 -2.636249e-17 1.004304e+03) (1.193646e+01 -2.225128e-21 8.422867e-01)) ((-5.021521e+01 -3.682115e+02 3.969230e+00) (-4.211434e-02 1.158813e+01 5.968229e-01))
0.0109428     	((7.680769e+01 -2.557995e-17 1.010857e+03) (1.199622e+01 5.407353e-21 8.261961e-01)) ((-5.054283e+01 -3.876077e+02 3.840384e+00) (-4.130981e-02 1.165425e+01 5.998108e-01))
0.0112662     	((7.697994e+01 -2.814454e-17 1.037905e+03) (1.197824e+01 5.067208e-21 8.079224e-01)) ((-5.189527e+01 -3.680514e+02 3.848997e+00) (-4.039612e-02 1.164338e+01 5.989122e-01))
0.0115897     	((7.702542e+01 -2.735310e-17 1.020370e+03) (1.195555e+01 6.364496e-21 7.897279e-01)) ((-5.101849e+01 -3.583478e+02 3.851271e+00) (-3.948639e-02 1.162763e+01 5.977773e-01))
0.0119132     	((7.621419e+01 -2.676913e-17 1.016465e+03) (1.192455e+01 7.038010e-21 7.720930e-01)) ((-5.082325e+01 -3.598088e+02 3.810709e+00) (-3.860465e-02 1.160279e+01 5.962274e-01))
0.0122367     	((7.572432e+01 -2.623912e-17 1.003991e+03) (1.189180e+01 6.599756e-21 7.544902e-01)) ((-5.019957e+01 -3.536509e+02 3.786216e+00) (-3.772451e-02 1.157569e+01 5.945898e-01))
0.0125742     	((7.268484e+01 -2.668648e-17 1.023121e+03) (1.183562e+01 4.850272e-22 7.364864e-01)) ((-5.115606e+01 -3.708736e+02 3.634242e+00) (-3.682432e-02 1.152490e+01 5.917808e-01))
0.0129117     	((6.866170e+01 -2.665619e-17 1.067162e+03) (1.186590e+01 4.332813e-21 7.157052e-01)) ((-5.335809e+01 -4.081248e+02 3.433085e+00) (-3.578526e-02 1.156368e+01 5.932950e-01))
0.0132493     	((7.308425e+01 -2.549737e-17 9.977671e+02) (1.183131e+01 1.578705e-21 6.962212e-01)) ((-4.988835e+01 -3.581635e+02 3.654213e+00) (-3.481106e-02 1.153630e+01 5.915656e-01))
0.0135868     	((7.369038e+01 -2.499917e-17 9.692940e+02) (1.179807e+01 5.606684e-22 6.714680e-01)) ((-4.846470e+01 -3.421435e+02 3.684519e+00) (-3.357340e-02 1.151219e+01 5.899034e-01))
0.0139243     	((7.472019e+01 -2.539489e-17 8.446853e+02) (1.175808e+01 -2.341031e-22 6.607655e-01)) ((-4.223426e+01 -3.032001e+02 3.736009e+00) (-3.303827e-02 1.147571e+01 5.879038e-01))
0.0142619     	((6.988497e+01 -2.670488e-17 9.966803e+02) (1.169811e+01 -1.066606e-21 6.466008e-01)) ((-4.983402e+01 -3.662268e+02 3.494248e+00) (-3.233004e-02 1.141903e+01 5.849057e-01))
0.0145994     	((6.851658e+01 -2.748397e-17 1.009826e+03) (1.169335e+01 2.748896e-21 6.301016e-01)) ((-5.049129e+01 -3.778008e+02 3.425829e+00) (-3.150508e-02 1.142043e+01 5.846673e-01))
0.0148994     	((7.095977e+01 -2.645678e-17 9.690728e+02) (1.165313e+01 3.611728e-21 6.172317e-01)) ((-4.845364e+01 -3.486276e+02 3.547988e+00) (-3.086159e-02 1.138408e+01 5.826567e-01))
0.0151995     	((7.155423e+01 -2.628112e-17 9.504043e+02) (1.160577e+01 4.223546e-21 6.050924e-01)) ((-4.752022e+01 -3.373299e+02 3.577711e+00) (-3.025462e-02 1.133981e+01 5.802884e-01))
0.0154995     	((6.934497e+01 -2.748757e-17 9.712898e+02) (1.155109e+01 6.280450e-21 5.937600e-01)) ((-4.856449e+01 -3.532195e+02 3.467248e+00) (-2.968800e-02 1.128748e+01 5.775545e-01))
0.0157995     	((6.519666e+01 -2.896438e-17 1.018531e+03) (1.156624e+01 7.379875e-21 5.769116e-01)) ((-5.092655e+01 -3.899708e+02 3.259833e+00) (-2.884558e-02 1.131080e+01 5.783120e-01))
0.0160996     	((6.930626e+01 -2.848123e-17 9.559111e+02) (1.152900e+01 7.869929e-21 5.648445e-01)) ((-4.779556e+01 -3.440207e+02 3.465313e+00) (-2.824222e-02 1.127724e+01 5.764502e-01))
0.0163996     	((6.949984e+01 -2.783629e-17 9.425707e+02) (1.148726e+01 8.896290e-21 5.537548e-01)) ((-4.712853e+01 -3.368666e+02 3.474992e+00) (-2.768774e-02 1.123853e+01 5.743628e-01))
0.0166996     	((6.820856e+01 -2.817366e-17 9.547062e+02) (1.143776e+01 8.781780e-21 5.428383e-01)) ((-4.773531e+01 -3.480825e+02 3.410428e+00) (-2.714192e-02 1.119139e+01 5.718882e-01))
0.0169997     	((6.995675e+01 -2.979998e-17 7.977617e+02) (1.138919e+01 8.145351e-21 5.362265e-01)) ((-3.988808e+01 -2.864738e+02 3.497837e+00) (-2.681133e-02 1.114352e+01 5.694596e-01))
0.0172997     	((6.435648e+01 -2.837367e-17 9.887033e+02) (1.140403e+01 6.999215e-21 5.183101e-01)) ((-4.943517e+01 -3.777947e+02 3.217824e+00) (-2.591550e-02 1.116878e+01 5.702015e-01))
0.0175997     	((6.749804e+01 -2.801347e-17 9.445550e+02) (1.136679e+01 6.903347e-21 5.077823e-01)) ((-4.722775e+01 -3.439783e+02 3.374902e+00) (-2.538911e-02 1.113473e+01 5.683394e-01))
0.0178998     	((6.637817e+01 -2.750209e-17 9.487727e+02) (1.132372e+01 7.152119e-21 4.987838e-01)) ((-4.743863e+01 -3.489012e+02 3.318909e+00) (-2.493919e-02 1.109366e+01 5.661859e-01))
0.0181998     	((6.752933e+01 -2.673923e-17 9.288996e+02) (1.127519e+01 6.427310e-21 4.905979e-01)) ((-4.644498e+01 -3.341121e+02 3.376467e+00) (-2.452989e-02 1.104661e+01 5.637596e-01))
0.0184998     	((6.741220e+01 -2.680779e-17 9.258656e+02) (1.122374e+01 3.404184e-21 4.836496e-01)) ((-4.629328e+01 -3.334849e+02 3.370610e+00) (-2.418248e-02 1.099580e+01 5.611870e-01))
0.0187999     	((6.243255e+01 -2.770843e-17 9.882487e+02) (1.124000e+01 4.456302e-21 4.665533e-01)) ((-4.941243e+01 -3.818277e+02 3.121628e+00) (-2.332766e-02 1.102304e+01 5.620000e-01))
0.0190999     	((6.682991e+01 -2.678174e-17 9.240779e+02) (1.120426e+01 5.101600e-21 4.580068e-01)) ((-4.620390e+01 -3.349655e+02 3.341495e+00) (-2.290034e-02 1.098966e+01 5.602130e-01))
0.0193999     	((6.688400e+01 -2.597693e-17 9.170049e+02) (1.116495e+01 5.815655e-21 4.500312e-01)) ((-4.585024e+01 -3.299331e+02 3.344200e+00) (-2.250156e-02 1.095213e+01 5.582473e-01))
0.0197        	((6.597745e+01 -2.618776e-17 9.245281e+02) (1.111860e+01 3.634582e-21 4.430338e-01)) ((-4.622640e+01 -3.363895e+02 3.298872e+00) (-2.215169e-02 1.090668e+01 5.559300e-01))
0.02          	((6.743630e+01 -2.555952e-17 8.992431e+02) (1.107369e+01 2.279865e-21 4.351853e-01)) ((-4.496215e+01 -3.175882e+02 3.371815e+00) (-2.175927e-02 1.086314e+01 5.536846e-01))
0.0203175     	((6.157113e+01 -2.700430e-17 9.724354e+02) (1.109802e+01 3.013865e-21 4.115231e-01)) ((-4.862177e+01 -3.747034e+02 3.078557e+00) (-2.057615e-02 1.090186e+01 5.549012e-01))
0.0206349     	((6.379721e+01 -2.720965e-17 8.157427e+02) (1.106827e+01 3.550897e-21 4.087540e-01)) ((-4.078714e+01 -2.998100e+02 3.189861e+00) (-2.043770e-02 1.087260e+01 5.534134e-01))
0.0209524     	((6.472339e+01 -2.510231e-17 9.164300e+02) (1.103087e+01 4.515912e-21 4.018745e-01)) ((-4.582150e+01 -3.356020e+02 3.236170e+00) (-2.009372e-02 1.083684e+01 5.515436e-01))
0.0212698     	((6.571712e+01 -2.473508e-17 9.024220e+02) (1.099437e+01 4.995766e-21 3.948638e-01)) ((-4.512110e+01 -3.251196e+02 3.285856e+00) (-1.974319e-02 1.080228e+01 5.497183e-01))
0.0215873     	((6.582961e+01 -2.538752e-17 8.992377e+02) (1.095754e+01 2.630892e-21 3.887711e-01)) ((-4.496188e+01 -3.238995e+02 3.291480e+00) (-1.943856e-02 1.076655e+01 5.478769e-01))
0.0219048     	((6.052373e+01 -2.557819e-17 9.654753e+02) (1.098597e+01 5.132334e-21 3.719786e-01)) ((-4.827376e+01 -3.737909e+02 3.026187e+00) (-1.859893e-02 1.080689e+01 5.492986e-01))
0.0222222     	((6.494122e+01 -2.450027e-17 9.029264e+02) (1.097015e+01 5.749085e-21 3.635356e-01)) ((-4.514632e+01 -3.267354e+02 3.247061e+00) (-1.817678e-02 1.079476e+01 5.485073e-01))
0.0225397     	((6.488943e+01 -2.424461e-17 9.013899e+02) (1.095140e+01 6.937162e-21 3.557749e-01)) ((-4.506950e+01 -3.253566e+02 3.244472e+00) (-1.778875e-02 1.077914e+01 5.475699e-01))
0.0228571     	((6.465942e+01 -2.381811e-17 9.014152e+02) (1.092745e+01 5.692503e-21 3.489619e-01)) ((-4.507076e+01 -3.249468e+02 3.232971e+00) (-1.744809e-02 1.075753e+01 5.463725e-01))
0.0231746     	((6.537558e+01 -2.416368e-17 8.863113e+02) (1.090320e+01 3.788260e-21 3.428847e-01)) ((-4.431556e+01 -3.154290e+02 3.268779e+00) (-1.714423e-02 1.073510e+01 5.451598e-01))
0.0234921     	((6.005464e+01 -2.488754e-17 9.527440e+02) (1.094308e+01 7.177418e-21 3.246757e-01)) ((-4.763720e+01 -3.665777e+02 3.002732e+00) (-1.623379e-02 1.078820e+01 5.471538e-01))
0.0238095     	((6.387355e+01 -2.426915e-17 8.948087e+02) (1.094134e+01 7.249506e-21 3.115352e-01)) ((-4.474043e+01 -3.249551e+02 3.193677e+00) (-1.557676e-02 1.079308e+01 5.470672e-01))
0.024127      	((6.116858e+01 -2.571263e-17 7.980894e+02) (1.093509e+01 8.644377e-21 3.096806e-01)) ((-3.990447e+01 -2.924999e+02 3.058429e+00) (-1.548403e-02 1.078819e+01 5.467544e-01))
0.0244509     	((6.382862e+01 -2.439240e-17 8.928550e+02) (1.091951e+01 7.477082e-21 3.035132e-01)) ((-4.464275e+01 -3.240660e+02 3.191431e+00) (-1.517566e-02 1.077520e+01 5.459756e-01))
0.0247749     	((6.481295e+01 -2.445652e-17 8.766754e+02) (1.090314e+01 6.209484e-21 2.978888e-01)) ((-4.383377e+01 -3.123496e+02 3.240648e+00) (-1.489444e-02 1.076090e+01 5.451572e-01))
0.0250988     	((5.950089e+01 -2.581717e-17 9.458774e+02) (1.094068e+01 1.061141e-20 2.840606e-01)) ((-4.729387e+01 -3.644457e+02 2.975044e+00) (-1.420303e-02 1.080882e+01 5.470339e-01))
0.0254227     	((6.352938e+01 -2.521049e-17 8.920595e+02) (1.093549e+01 1.104158e-20 2.770069e-01)) ((-4.460297e+01 -3.227828e+02 3.176469e+00) (-1.385035e-02 1.080734e+01 5.467746e-01))
0.0257467     	((6.275468e+01 -2.619472e-17 9.007336e+02) (1.092443e+01 1.286306e-20 2.711334e-01)) ((-4.503668e+01 -3.293311e+02 3.137734e+00) (-1.355667e-02 1.079884e+01 5.462217e-01))
0.0260706     	((6.280908e+01 -2.634259e-17 8.953027e+02) (1.090907e+01 1.187825e-20 2.660616e-01)) ((-4.476513e+01 -3.259493e+02 3.140454e+00) (-1.330308e-02 1.078518e+01 5.454534e-01))
0.0263946     	((6.392000e+01 -2.668715e-17 8.799195e+02) (1.089179e+01 1.139517e-20 2.613744e-01)) ((-4.399597e+01 -3.140836e+02 3.196000e+00) (-1.306872e-02 1.076914e+01 5.445896e-01))
0.0267185     	((5.971186e+01 -2.813807e-17 9.313084e+02) (1.090025e+01 1.870674e-20 2.558245e-01)) ((-4.656542e+01 -3.545884e+02 2.985593e+00) (-1.279122e-02 1.077953e+01 5.450126e-01))
0.0270424     	((6.278257e+01 -2.732244e-17 8.836179e+02) (1.089221e+01 1.868708e-20 2.432807e-01)) ((-4.418090e+01 -3.203104e+02 3.139128e+00) (-1.216403e-02 1.077688e+01 5.446106e-01))
0.0273664     	((5.796610e+01 -2.943497e-17 7.974263e+02) (1.086192e+01 1.997613e-20 2.497230e-01)) ((-3.987131e+01 -2.953729e+02 2.898305e+00) (-1.248615e-02 1.074026e+01 5.430960e-01))
0.0276903     	((6.314572e+01 -2.727641e-17 8.757212e+02) (1.081790e+01 1.925370e-20 2.496607e-01)) ((-4.378606e+01 -3.150495e+02 3.157286e+00) (-1.248303e-02 1.069262e+01 5.408951e-01))
0.0280143     	((6.149330e+01 -2.715399e-17 8.952708e+02) (1.080474e+01 1.967451e-20 2.436628e-01)) ((-4.476354e+01 -3.303335e+02 3.074665e+00) (-1.218314e-02 1.068110e+01 5.402371e-01))
0.0283382     	((6.297609e+01 -2.633099e-17 8.771340e+02) (1.077567e+01 1.731013e-20 2.353841e-01)) ((-4.385670e+01 -3.156257e+02 3.148804e+00) (-1.176921e-02 1.065443e+01 5.387834e-01))
0.0286621     	((6.041644e+01 -2.629175e-17 9.105561e+02) (1.079566e+01 1.916070e-20 2.226481e-01)) ((-4.552780e+01 -3.406509e+02 3.020822e+00) (-1.113241e-02 1.068045e+01 5.397832e-01))
0.0289861     	((6.190340e+01 -2.583758e-17 8.880114e+02) (1.078775e+01 1.467591e-20 2.100381e-01)) ((-4.440057e+01 -3.240453e+02 3.095170e+00) (-1.050191e-02 1.067743e+01 5.393875e-01))
0.02931       	((6.163852e+01 -2.492988e-17 8.933867e+02) (1.079856e+01 1.194451e-20 1.935981e-01)) ((-4.466933e+01 -3.270093e+02 3.081926e+00) (-9.679905e-03 1.069518e+01 5.399282e-01))
0.0296339     	((6.160563e+01 -2.405303e-17 8.934487e+02) (1.081352e+01 8.223182e-21 1.738616e-01)) ((-4.467244e+01 -3.265735e+02 3.080281e+00) (-8.693080e-03 1.071858e+01 5.406758e-01))
0.0299579     	((6.159419e+01 -2.398254e-17 8.876909e+02) (1.082441e+01 2.988569e-21 1.540503e-01)) ((-4.438454e+01 -3.234565e+02 3.079710e+00) (-7.702514e-03 1.073742e+01 5.412206e-01))
0.0302818     	((5.930528e+01 -2.436391e-17 9.211677e+02) (1.086777e+01 3.325366e-21 1.280192e-01)) ((-4.605839e+01 -3.478468e+02 2.965264e+00) (-6.400962e-03 1.079300e+01 5.433886e-01))
0.0306058     	((5.998667e+01 -2.388565e-17 8.505494e+02) (1.087926e+01 -4.815225e-21 1.029617e-01)) ((-4.252747e+01 -3.093708e+02 2.999334e+00) (-5.148085e-03 1.081474e+01 5.439629e-01))
0.0309297     	((5.883398e+01 -2.394236e-17 8.016669e+02) (1.089242e+01 -1.055409e-20 7.529571e-02)) ((-4.008335e+01 -2.880071e+02 2.941699e+00) (-3.764785e-03 1.083932e+01 5.446211e-01))
0.0312536     	((5.963019e+01 -2.404208e-17 9.106932e+02) (1.094517e+01 -1.163783e-20 4.210957e-02)) ((-4.553466e+01 -3.416897e+02 2.981510e+00) (-2.105479e-03 1.090764e+01 5.472587e-01))
0.0315776     	((6.105043e+01 -2.402479e-17 8.912584e+02) (1.097029e+01 -1.914661e-20 8.909629e-03)) ((-4.456292e+01 -3.270773e+02 3.052522e+00) (-4.454814e-04 1.094689e+01 5.485145e-01))
0.0319015     	((6.173495e+01 -2.361744e-17 8.681387e+02) (1.099024e+01 -2.269939e-20 -2.325206e-02)) ((-4.340694e+01 -3.127650e+02 3.086747e+00) (1.162603e-03 1.097999e+01 5.495119e-01))
0.0322255     	((5.905948e+01 -2.384178e-17 9.051802e+02) (1.104773e+01 -1.719287e-20 -6.022247e-02)) ((-4.525901e+01 -3.402225e+02 2.952974e+00) (3.011124e-03 1.105430e+01 5.523867e-01))
0.0325494     	((6.094674e+01 -2.352500e-17 8.827890e+02) (1.107435e+01 -2.497708e-20 -9.692822e-02)) ((-4.413945e+01 -3.224966e+02 3.047337e+00) (4.846411e-03 1.109591e+01 5.537174e-01))
0.0328733     	((6.170031e+01 -2.314443e-17 8.725043e+02) (1.109725e+01 -2.855267e-20 -1.295724e-01)) ((-4.362521e+01 -3.142986e+02 3.085016e+00) (6.478622e-03 1.113132e+01 5.548626e-01))
0.0331973     	((5.763605e+01 -2.380713e-17 9.298414e+02) (1.117438e+01 -2.528387e-20 -1.680446e-01)) ((-4.649207e+01 -3.564633e+02 2.881803e+00) (8.402229e-03 1.122553e+01 5.587188e-01))
0.0335212     	((6.113305e+01 -2.287533e-17 8.841016e+02) (1.121338e+01 -2.766016e-20 -2.081764e-01)) ((-4.420508e+01 -3.214553e+02 3.056653e+00) (1.040882e-02 1.128159e+01 5.606688e-01))
0.0338452     	((6.010216e+01 -2.249617e-17 8.928347e+02) (1.125606e+01 -3.209662e-20 -2.513654e-01)) ((-4.464174e+01 -3.288895e+02 3.005108e+00) (1.256827e-02 1.134218e+01 5.628032e-01))
0.0341691     	((5.542509e+01 -2.218550e-17 7.697307e+02) (1.129552e+01 -3.776282e-20 -2.977675e-01)) ((-3.848654e+01 -2.751318e+02 2.771255e+00) (1.488838e-02 1.140084e+01 5.647759e-01))
0.034493      	((5.948900e+01 -2.230448e-17 8.965622e+02) (1.135931e+01 -3.753798e-20 -3.483217e-01)) ((-4.482811e+01 -3.325342e+02 2.974450e+00) (1.741608e-02 1.148685e+01 5.679653e-01))
0.034817      	((6.097796e+01 -2.205138e-17 8.770026e+02) (1.139901e+01 -4.485338e-20 -3.985656e-01)) ((-4.385013e+01 -3.174572e+02 3.048898e+00) (1.992828e-02 1.154760e+01 5.699503e-01))
0.0351409     	((5.902339e+01 -2.232109e-17 9.051810e+02) (1.146599e+01 -4.339274e-20 -4.526229e-01)) ((-4.525905e+01 -3.382207e+02 2.951170e+00) (2.263114e-02 1.163869e+01 5.732994e-01))
0.0354649     	((6.068910e+01 -2.199283e-17 8.793883e+02) (1.150726e+01 -4.982965e-20 -5.053106e-01)) ((-4.396942e+01 -3.195572e+02 3.034455e+00) (2.526553e-02 1.170206e+01 5.753632e-01))
0.0357888     	((5.907718e+01 -2.218489e-17 8.987345e+02) (1.157388e+01 -4.100663e-20 -5.611690e-01)) ((-4.493673e+01 -3.347483e+02 2.953859e+00) (2.805845e-02 1.179337e+01 5.786938e-01))
0.0361127     	((6.054650e+01 -2.202570e-17 8.784895e+02) (1.161795e+01 -4.431705e-20 -6.142251e-01)) ((-4.392448e+01 -3.195356e+02 3.027325e+00) (3.071126e-02 1.185916e+01 5.808975e-01))
0.0364367     	((5.715605e+01 -2.268702e-17 9.162334e+02) (1.170440e+01 -3.369313e-20 -6.679210e-01)) ((-4.581167e+01 -3.496521e+02 2.857802e+00) (3.339605e-02 1.196942e+01 5.852200e-01))
0.0367606     	((6.009641e+01 -2.187629e-17 8.813316e+02) (1.175533e+01 -3.415045e-20 -7.210142e-01)) ((-4.406658e+01 -3.224813e+02 3.004820e+00) (3.605071e-02 1.204244e+01 5.877664e-01))
0.0370845     	((6.019002e+01 -2.202653e-17 8.768983e+02) (1.180209e+01 -4.085346e-20 -7.757661e-01)) ((-4.384491e+01 -3.199075e+02 3.009501e+00) (3.878830e-02 1.211126e+01 5.901044e-01))
0.0374085     	((5.737042e+01 -2.228046e-17 8.916092e+02) (1.188340e+01 -3.507313e-20 -8.423889e-01)) ((-4.458046e+01 -3.360576e+02 2.868521e+00) (4.211944e-02 1.222244e+01 5.941702e-01))
0.0377324     	((5.362678e+01 -2.180535e-17 7.709797e+02) (1.193101e+01 -4.095531e-20 -8.953488e-01)) ((-3.854899e+01 -2.777291e+02 2.681339e+00) (4.476744e-02 1.229107e+01 5.965506e-01))
0.0380564     	((5.935287e+01 -2.212416e-17 8.851533e+02) (1.198645e+01 -4.518959e-20 -9.563413e-01)) ((-4.425766e+01 -3.269845e+02 2.967644e+00) (4.781706e-02 1.237199e+01 5.993227e-01))
0.0383803     	((5.842671e+01 -2.229152e-17 9.001766e+02) (1.205229e+01 -4.257668e-20 -1.019618e+00)) ((-4.500883e+01 -3.374315e+02 2.921335e+00) (5.098088e-02 1.246526e+01 6.026143e-01))
0.0387042     	((5.993480e+01 -2.213988e-17 8.791791e+02) (1.209545e+01 -4.855540e-20 -1.081910e+00)) ((-4.395896e+01 -3.215164e+02 2.996740e+00) (5.409549e-02 1.253437e+01 6.047724e-01))
0.0390282     	((5.783479e+01 -2.229822e-17 8.907274e+02) (1.216253e+01 -4.390359e-20 -1.147128e+00)) ((-4.453637e+01 -3.331797e+02 2.891739e+00) (5.735640e-02 1.263000e+01 6.081267e-01))
0.0393521     	((5.975671e+01 -2.211346e-17 8.757814e+02) (1.220492e+01 -4.843141e-20 -1.209528e+00)) ((-4.378907e+01 -3.195843e+02 2.987835e+00) (6.047641e-02 1.269777e+01 6.102460e-01))
0.0396761     	((5.690340e+01 -2.271159e-17 9.187346e+02) (1.228855e+01 -4.039025e-20 -1.276302e+00)) ((-4.593673e+01 -3.507508e+02 2.845170e+00) (6.381509e-02 1.281092e+01 6.144276e-01))
0.04          	((5.918189e+01 -2.208367e-17 8.831467e+02) (1.233437e+01 -4.169122e-20 -1.336604e+00)) ((-4.415734e+01 -3.248757e+02 2.959095e+00) (6.683021e-02 1.288018e+01 6.167186e-01))
0.0403279     	((5.992877e+01 -2.188191e-17 8.713103e+02) (1.236652e+01 -4.160933e-20 -1.393283e+00)) ((-4.356551e+01 -3.164506e+02 2.996439e+00) (6.966416e-02 1.293282e+01 6.183261e-01))
0.0406557     	((5.537580e+01 -2.273872e-17 9.126357e+02) (1.245356e+01 -2.421582e-20 -1.455221e+00)) ((-4.563178e+01 -3.515906e+02 2.768790e+00) (7.276103e-02 1.304582e+01 6.226779e-01))
0.0409836     	((5.898408e+01 -2.231440e-17 8.775794e+02) (1.249405e+01 -1.301577e-20 -1.515867e+00)) ((-4.387897e+01 -3.227674e+02 2.949204e+00) (7.579333e-02 1.311047e+01 6.247027e-01))
0.0413115     	((5.138968e+01 -2.273652e-17 7.864643e+02) (1.252152e+01 -4.017169e-21 -1.559068e+00)) ((-3.932321e+01 -2.880107e+02 2.569484e+00) (7.795341e-02 1.315366e+01 6.260760e-01))
0.0416393     	((5.931062e+01 -2.248729e-17 8.618316e+02) (1.252223e+01 2.113779e-21 -1.604931e+00)) ((-4.309158e+01 -3.134845e+02 2.965531e+00) (8.024655e-02 1.317176e+01 6.261116e-01))
0.0419672     	((5.648330e+01 -2.321367e-17 9.113754e+02) (1.256611e+01 1.216315e-20 -1.653047e+00)) ((-4.556877e+01 -3.485088e+02 2.824165e+00) (8.265233e-02 1.323695e+01 6.283053e-01))
0.0422951     	((5.863863e+01 -2.295666e-17 8.799279e+02) (1.256208e+01 1.296435e-20 -1.695784e+00)) ((-4.399639e+01 -3.250303e+02 2.931931e+00) (8.478921e-02 1.325010e+01 6.281040e-01))
0.042623      	((5.946038e+01 -2.293589e-17 8.731181e+02) (1.255343e+01 7.153055e-21 -1.736068e+00)) ((-4.365590e+01 -3.188952e+02 2.973019e+00) (8.680338e-02 1.325833e+01 6.276716e-01))
0.0429508     	((5.506872e+01 -2.405814e-17 9.308352e+02) (1.261279e+01 3.521961e-21 -1.778647e+00)) ((-4.654176e+01 -3.621540e+02 2.753436e+00) (8.893233e-02 1.333856e+01 6.306397e-01))
0.0432787     	((5.877637e+01 -2.371412e-17 8.817711e+02) (1.261187e+01 -4.974441e-23 -1.813694e+00)) ((-4.408856e+01 -3.248324e+02 2.938818e+00) (9.068470e-02 1.335287e+01 6.305935e-01))
0.0436066     	((5.806179e+01 -2.433581e-17 8.893621e+02) (1.259522e+01 -5.620729e-21 -1.840113e+00)) ((-4.446810e+01 -3.308333e+02 2.903090e+00) (9.200563e-02 1.334623e+01 6.297612e-01))
0.0439344     	((5.915938e+01 -2.452504e-17 8.688746e+02) (1.256427e+01 -1.533553e-20 -1.860101e+00)) ((-4.344373e+01 -3.165001e+02 2.957969e+00) (9.300507e-02 1.332151e+01 6.282136e-01))
0.0442623     	((5.353303e+01 -2.575195e-17 9.266252e+02) (1.261148e+01 -1.819835e-20 -1.892288e+00)) ((-4.633126e+01 -3.630414e+02 2.676651e+00) (9.461442e-02 1.338569e+01 6.305738e-01))
0.0445902     	((5.034718e+01 -2.476123e-17 7.701966e+02) (1.259135e+01 -1.598968e-20 -1.903423e+00)) ((-3.850983e+01 -2.764499e+02 2.517359e+00) (9.517114e-02 1.336902e+01 6.295677e-01))
0.044918      	((5.742162e+01 -2.412783e-17 8.941866e+02) (1.255890e+01 -1.378011e-20 -1.920458e+00)) ((-4.470933e+01 -3.355453e+02 2.871081e+00) (9.602290e-02 1.334340e+01 6.279451e-01))
0.0452459     	((5.843763e+01 -2.371985e-17 8.756057e+02) (1.252038e+01 -1.316699e-20 -1.936743e+00)) ((-4.378028e+01 -3.224757e+02 2.921881e+00) (9.683713e-02 1.331164e+01 6.260191e-01))
0.0455738     	((5.504674e+01 -2.415151e-17 9.098611e+02) (1.252575e+01 -7.870938e-21 -1.958186e+00)) ((-4.549306e+01 -3.499864e+02 2.752337e+00) (9.790931e-02 1.332982e+01 6.262876e-01))
0.0459016     	((5.696941e+01 -2.386229e-17 8.898098e+02) (1.249029e+01 -7.968303e-21 -1.972396e+00)) ((-4.449049e+01 -3.338683e+02 2.848470e+00) (9.861979e-02 1.330102e+01 6.245147e-01))
0.0462295     	((5.846759e+01 -2.347570e-17 8.719885e+02) (1.245218e+01 -5.876703e-21 -1.986013e+00)) ((-4.359943e+01 -3.200550e+02 2.923380e+00) (9.930064e-02 1.327028e+01 6.226091e-01))
0.0465574     	((5.341162e+01 -2.459157e-17 9.446802e+02) (1.248813e+01 -3.583068e-21 -2.003627e+00)) ((-4.723401e+01 -3.735121e+02 2.670581e+00) (1.001813e-01 1.331932e+01 6.244067e-01))
0.0468852     	((5.724406e+01 -2.389535e-17 8.908896e+02) (1.246077e+01 -1.559894e-20 -2.011337e+00)) ((-4.454448e+01 -3.330693e+02 2.862203e+00) (1.005668e-01 1.329723e+01 6.230387e-01))
0.0472131     	((5.655643e+01 -2.390505e-17 8.970952e+02) (1.241921e+01 -2.814332e-20 -2.010680e+00)) ((-4.485476e+01 -3.380376e+02 2.827822e+00) (1.005340e-01 1.325560e+01 6.209603e-01))
0.047541      	((5.688642e+01 -2.381017e-17 8.769832e+02) (1.237135e+01 -4.002091e-20 -2.013740e+00)) ((-4.384916e+01 -3.253474e+02 2.844321e+00) (1.006870e-01 1.320986e+01 6.185673e-01))