# Forces      
# CofR        : (0.000000e+00 0.000000e+00 -1.000000e+00)
# Time        forces(pressure viscous)	moments(pressure viscous)
0             	((0.000000e+00 8.429467e-17 5.115908e-13) (5.181290e+00 -9.001331e-21 4.163099e-01)) ((8.881784e-15 -1.136868e-13 3.552714e-15) (-2.081549e-02 4.976094e+00 2.590645e-01))
1.19976e-05   	((1.023512e+05 -5.225950e-15 2.669817e+05) (5.230677e+00 -1.219997e-20 3.884181e-01)) ((-1.334908e+04 3.574484e+04 5.117561e+03) (-1.942090e-02 5.033288e+00 2.615339e-01))
2.63878e-05   	((1.668981e+04 -1.396322e-15 4.458666e+04) (5.247129e+00 -9.718015e-21 3.808924e-01)) ((-2.229333e+03 5.431165e+03 8.344903e+02) (-1.904462e-02 5.050438e+00 2.623565e-01))
4.36511e-05   	((9.624602e+03 -7.111677e-16 2.463250e+04) (5.271441e+00 -1.098386e-20 3.809439e-01)) ((-1.231625e+03 3.452551e+03 4.812301e+02) (-1.904719e-02 5.073314e+00 2.635721e-01))
6.43527e-05   	((6.870877e+03 -2.565504e-16 1.660664e+04) (5.302854e+00 -1.094850e-20 3.819391e-01)) ((-8.303322e+02 2.573536e+03 3.435439e+02) (-1.909695e-02 5.102876e+00 2.651427e-01))
8.91792e-05   	((5.183233e+03 9.195417e-17 1.250219e+04) (5.341620e+00 -1.104636e-20 3.823434e-01)) ((-6.251095e+02 1.667437e+03 2.591617e+02) (-1.911717e-02 5.139793e+00 2.670810e-01))
0.000118941   	((3.873361e+03 4.914498e-16 1.254397e+04) (5.388519e+00 -1.206979e-20 3.832424e-01)) ((-6.271986e+02 -2.785427e+02 1.936681e+02) (-1.916212e-02 5.184816e+00 2.694260e-01))
0.000154634   	((2.983492e+03 1.431600e-16 6.635519e+03) (5.444239e+00 -1.156899e-20 3.857217e-01)) ((-3.317760e+02 1.106581e+03 1.491746e+02) (-1.928609e-02 5.237927e+00 2.722120e-01))
0.000197405   	((3.224292e+03 1.271270e-15 2.595007e+03) (5.514573e+00 -9.746014e-21 3.900848e-01)) ((-1.297503e+02 2.080801e+03 1.612146e+02) (-1.950424e-02 5.305089e+00 2.757287e-01))
0.000248707   	((2.828520e+03 7.885571e-16 6.709444e+03) (5.604768e+00 -8.441023e-21 3.883795e-01)) ((-3.354722e+02 7.846919e+01 1.414260e+02) (-1.941897e-02 5.393732e+00 2.802384e-01))
0.000310237   	((5.297890e+03 1.952510e-15 2.608229e+03) (5.737722e+00 -6.804440e-21 3.782389e-01)) ((-1.304115e+02 3.521597e+03 2.648945e+02) (-1.891194e-02 5.525735e+00 2.868861e-01))
0.000383982   	((1.228852e+03 2.100858e-16 4.526741e+03) (5.874966e+00 -4.693722e-21 3.770017e-01)) ((-2.263371e+02 -4.569388e+02 6.144261e+01) (-1.885008e-02 5.661544e+00 2.937483e-01))
0.000472342   	((1.532430e+03 5.529951e-17 1.907376e+02) (6.050975e+00 -5.461828e-21 3.846520e-01)) ((-9.536881e+00 1.017413e+03 7.662151e+01) (-1.923260e-02 5.833393e+00 3.025488e-01))
0.000577897   	((7.956432e+02 1.136990e-16 3.281148e+03) (6.274784e+00 -4.704917e-21 3.885807e-01)) ((-1.640574e+02 -5.455311e+02 3.978216e+01) (-1.942903e-02 6.054251e+00 3.137392e-01))
0.000704014   	((6.613974e+02 7.630954e-17 1.657267e+03) (6.570177e+00 -1.704992e-21 3.939894e-01)) ((-8.286335e+01 1.197711e+02 3.306987e+01) (-1.969947e-02 6.345458e+00 3.285088e-01))
0.000854764   	((6.050516e+02 4.596260e-17 1.889866e+03) (6.960799e+00 -1.341850e-21 4.058825e-01)) ((-9.449331e+01 -2.761923e+02 3.025258e+01) (-2.029413e-02 6.730257e+00 3.480399e-01))
0.00103538    	((5.770629e+02 1.945988e-17 9.336834e+02) (7.439830e+00 -1.521948e-21 4.268659e-01)) ((-4.668417e+01 4.305610e+01 2.885315e+01) (-2.134330e-02 7.202420e+00 3.719915e-01))
0.00125089    	((3.990765e+02 5.390471e-17 1.210650e+03) (7.977804e+00 3.137615e-21 4.458024e-01)) ((-6.053252e+01 -4.550941e+01 1.995383e+01) (-2.229012e-02 7.733916e+00 3.988902e-01))
0.00150772    	((3.878197e+02 -3.448281e-17 9.713849e+02) (8.574812e+00 4.172136e-21 4.682980e-01)) ((-4.856925e+01 -1.137727e+02 1.939099e+01) (-2.341490e-02 8.324062e+00 4.287406e-01))
0.00181593    	((2.817716e+02 1.427262e-17 1.262103e+03) (9.227543e+00 4.486641e-21 4.882161e-01)) ((-6.310514e+01 -2.469704e+02 1.408858e+01) (-2.441081e-02 8.971064e+00 4.613772e-01))
0.00217961    	((2.957228e+02 5.934658e-17 4.534628e+02) (9.922460e+00 2.945397e-21 5.115616e-01)) ((-2.267314e+01 9.974782e+01 1.478614e+01) (-2.557808e-02 9.658288e+00 4.961230e-01))
0.00261425    	((2.164299e+02 2.704947e-17 9.208239e+02) (1.065171e+01 5.626199e-21 5.287573e-01)) ((-4.604119e+01 -1.617498e+02 1.082150e+01) (-2.643787e-02 1.038287e+01 5.325856e-01))
0.0031256     	((2.046945e+02 -3.273355e-17 6.476736e+02) (1.138512e+01 8.432647e-21 5.457071e-01)) ((-3.238368e+01 -9.542706e+01 1.023472e+01) (-2.728535e-02 1.111304e+01 5.692559e-01))
0.00372826    	((1.671449e+02 3.919424e-18 7.136818e+02) (1.209795e+01 1.361652e-21 5.520030e-01)) ((-3.568409e+01 -1.225821e+02 8.357247e+00) (-2.760015e-02 1.182820e+01 6.048973e-01))
0.00443572    	((1.615739e+02 2.444633e-17 4.436760e+02) (1.275232e+01 3.594105e-21 5.661310e-01)) ((-2.218380e+01 -1.218762e+01 8.078693e+00) (-2.830655e-02 1.248169e+01 6.376162e-01))
0.0052549     	((1.301543e+02 8.278063e-18 6.313156e+02) (1.331205e+01 -1.367106e-21 5.555818e-01)) ((-3.156578e+01 -1.314351e+02 6.507713e+00) (-2.777909e-02 1.305479e+01 6.656023e-01))
0.00617646    	((1.210248e+02 9.717222e-18 5.683593e+02) (1.373002e+01 -1.798024e-22 5.468310e-01)) ((-2.841797e+01 -1.300679e+02 6.051241e+00) (-2.734155e-02 1.348989e+01 6.865009e-01))
0.00716386    	((1.127289e+02 -3.212326e-17 9.390294e+02) (1.402885e+01 -2.244384e-21 5.485666e-01)) ((-4.695147e+01 -3.236585e+02 5.636443e+00) (-2.742833e-02 1.379423e+01 7.014425e-01))
0.00815126    	((9.017106e+01 -1.203674e-17 4.490858e+02) (1.420022e+01 1.220722e-20 5.527732e-01)) ((-2.245429e+01 -1.027642e+02 4.508553e+00) (-2.763866e-02 1.396960e+01 7.100111e-01))
0.00913865    	((1.355455e+02 -1.292398e-17 5.554375e+02) (1.429975e+01 8.932171e-21 5.423330e-01)) ((-2.777187e+01 -1.112845e+02 6.777277e+00) (-2.711665e-02 1.408187e+01 7.149876e-01))
0.00997414    	((-3.664934e+01 1.382350e-19 2.639435e+02) (1.411211e+01 1.493188e-20 4.988293e-01)) ((-1.319718e+01 -2.234596e+02 -1.832467e+00) (-2.494147e-02 1.390674e+01 7.056053e-01))
0.0103199     	((-4.418143e+01 -3.041045e-17 5.179204e+02) (1.399715e+01 3.343753e-21 4.684930e-01)) ((-2.589602e+01 -4.168056e+02 -2.209071e+00) (-2.342465e-02 1.379719e+01 6.998577e-01))
0.0106656     	((-9.090801e+00 9.661466e-18 2.413769e+02) (1.387653e+01 1.102866e-20 4.385327e-01)) ((-1.206884e+01 -1.655596e+02 -4.545400e-01) (-2.192664e-02 1.367924e+01 6.938267e-01))
0.0110113     	((-2.709179e+01 5.023922e-17 4.917554e+02) (1.375413e+01 2.183405e-20 4.120223e-01)) ((-2.458777e+01 -3.657298e+02 -1.354589e+00) (-2.060112e-02 1.355627e+01 6.877067e-01))
0.0113708     	((-4.190089e+01 7.196738e-17 6.638799e+02) (1.361608e+01 5.987625e-21 3.652186e-01)) ((-3.319399e+01 -5.095787e+02 -2.095044e+00) (-1.826093e-02 1.343631e+01 6.808038e-01))
0.011746      	((-8.822053e+00 1.204892e-17 4.186049e+02) (1.348969e+01 1.378920e-21 3.295159e-01)) ((-2.093025e+01 -2.667873e+02 -4.411027e-01) (-1.647579e-02 1.331692e+01 6.744845e-01))
0.0121212     	((1.788020e+00 1.011901e-17 4.184423e+02) (1.337017e+01 -1.247472e-22 2.973065e-01)) ((-2.092212e+01 -2.465494e+02 8.940098e-02) (-1.486532e-02 1.320296e+01 6.685084e-01))
0.0124964     	((-4.335884e+01 -3.565442e-17 1.140776e+03) (1.325421e+01 -7.021096e-21 2.685660e-01)) ((-5.703879e+01 -7.424159e+02 -2.167942e+00) (-1.342830e-02 1.309149e+01 6.627104e-01))
0.0128537     	((1.275485e+01 2.115713e-17 3.762473e+02) (1.315512e+01 -7.870373e-21 2.450141e-01)) ((-1.881236e+01 -2.007869e+02 6.377425e-01) (-1.225070e-02 1.299597e+01 6.577558e-01))
0.013211      	((2.365996e+01 1.183436e-17 4.341859e+02) (1.305928e+01 -4.430051e-21 2.226971e-01)) ((-2.170930e+01 -2.027436e+02 1.182998e+00) (-1.113486e-02 1.290306e+01 6.529639e-01))
0.0135683     	((3.102369e+01 -1.828021e-17 5.249396e+02) (1.296205e+01 2.559031e-21 2.041284e-01)) ((-2.624698e+01 -2.217541e+02 1.551184e+00) (-1.020642e-02 1.280823e+01 6.481024e-01))
0.0139467     	((5.656393e+01 -1.961439e-17 7.049084e+02) (1.286121e+01 2.780191e-22 1.874593e-01)) ((-3.524542e+01 -2.452454e+02 2.828196e+00) (-9.372964e-03 1.271003e+01 6.430603e-01))
0.014325      	((1.104484e+02 -8.536425e-17 1.294794e+03) (1.275605e+01 -3.736562e-21 1.721700e-01)) ((-6.473971e+01 -3.729585e+02 5.522418e+00) (-8.608502e-03 1.260801e+01 6.378025e-01))
0.0147033     	((4.764256e+01 -1.103334e-18 5.787928e+02) (1.265100e+01 -6.267964e-21 1.643578e-01)) ((-2.893964e+01 -2.191973e+02 2.382128e+00) (-8.217892e-03 1.250551e+01 6.325500e-01))
0.0150817     	((5.595870e+01 -3.063222e-18 6.058340e+02) (1.255118e+01 -6.395884e-21 1.595525e-01)) ((-3.029170e+01 -2.192609e+02 2.797935e+00) (-7.977624e-03 1.240782e+01 6.275589e-01))
0.0154915     	((5.465479e+01 -4.785273e-18 6.292072e+02) (1.244493e+01 -4.710331e-21 1.565180e-01)) ((-3.146036e+01 -2.350233e+02 2.732740e+00) (-7.825901e-03 1.230360e+01 6.222467e-01))
0.0159014     	((5.446444e+01 -4.749840e-18 6.278192e+02) (1.233921e+01 -3.595734e-21 1.540411e-01)) ((-3.139096e+01 -2.330274e+02 2.723222e+00) (-7.702055e-03 1.219948e+01 6.169603e-01))
0.0163112     	((6.234496e+01 -6.463017e-18 6.505643e+02) (1.224271e+01 -1.304011e-21 1.546267e-01)) ((-3.252821e+01 -2.295821e+02 3.117248e+00) (-7.731334e-03 1.210431e+01 6.121353e-01))
0.0167211     	((6.828234e+01 -7.857631e-18 6.721940e+02) (1.214732e+01 -1.931880e-21 1.568275e-01)) ((-3.360970e+01 -2.289037e+02 3.414117e+00) (-7.841373e-03 1.200986e+01 6.073660e-01))
0.017131      	((6.908045e+01 -8.660056e-18 6.816677e+02) (1.205005e+01 -2.847018e-21 1.602969e-01)) ((-3.408338e+01 -2.312195e+02 3.454022e+00) (-8.014846e-03 1.191259e+01 6.025024e-01))
0.0175408     	((6.050808e+01 -5.509834e-18 6.384962e+02) (1.195573e+01 -4.473069e-21 1.660851e-01)) ((-3.192481e+01 -2.273832e+02 3.025404e+00) (-8.304256e-03 1.181803e+01 5.977864e-01))
0.0179507     	((6.678332e+01 -8.225397e-18 6.780826e+02) (1.186390e+01 -2.572111e-21 1.715532e-01)) ((-3.390413e+01 -2.348102e+02 3.339166e+00) (-8.577662e-03 1.172600e+01 5.931950e-01))
0.0183606     	((7.099230e+01 -9.902138e-18 7.042335e+02) (1.178824e+01 1.048425e-21 1.783746e-01)) ((-3.521167e+01 -2.404418e+02 3.549615e+00) (-8.918731e-03 1.165097e+01 5.894119e-01))
0.0187704     	((5.852325e+01 -8.468966e-18 7.178566e+02) (1.164386e+01 5.795898e-21 1.961281e-01)) ((-3.589283e+01 -2.791839e+02 2.926162e+00) (-9.806404e-03 1.149775e+01 5.821929e-01))
0.0191803     	((4.892744e+01 -1.408563e-17 9.261789e+02) (1.135684e+01 -5.422759e-21 2.285951e-01)) ((-4.630895e+01 -4.187686e+02 2.446372e+00) (-1.142976e-02 1.118565e+01 5.678419e-01))
0.0195901     	((4.014956e+01 -1.362022e-17 9.591450e+02) (1.148654e+01 7.627023e-21 2.718953e-01)) ((-4.795725e+01 -4.570503e+02 2.007478e+00) (-1.359476e-02 1.128199e+01 5.743269e-01))
0.02          	((5.498055e+01 -1.082633e-17 7.907546e+02) (1.140276e+01 9.691210e-21 2.708150e-01)) ((-3.953773e+01 -3.256282e+02 2.749028e+00) (-1.354075e-02 1.120951e+01 5.701379e-01))
0.0204651     	((5.845450e+01 -8.686752e-18 7.346189e+02) (1.130683e+01 8.912352e-21 2.726586e-01)) ((-3.673094e+01 -2.861254e+02 2.922725e+00) (-1.363293e-02 1.112093e+01 5.653416e-01))
0.0209792     	((5.844979e+01 -8.017873e-18 7.135970e+02) (1.120159e+01 7.743765e-21 2.828367e-01)) ((-3.567985e+01 -2.749545e+02 2.922489e+00) (-1.414184e-02 1.101618e+01 5.600793e-01))
0.0215386     	((5.845508e+01 -7.470463e-18 6.903822e+02) (1.109084e+01 7.320965e-21 2.915816e-01)) ((-3.451911e+01 -2.598375e+02 2.922754e+00) (-1.457908e-02 1.090658e+01 5.545418e-01))
0.022154      	((5.311898e+01 -8.588465e-18 7.693310e+02) (1.109083e+01 7.367494e-21 2.911071e-01)) ((-3.846655e+01 -3.189958e+02 2.655949e+00) (-1.455535e-02 1.091300e+01 5.545417e-01))
0.0227694     	((5.759626e+01 -7.848252e-18 7.142841e+02) (1.099126e+01 5.506349e-21 2.921375e-01)) ((-3.571421e+01 -2.772791e+02 2.879813e+00) (-1.460687e-02 1.081810e+01 5.495628e-01))
0.0233848     	((5.421036e+01 -7.495621e-18 7.193400e+02) (1.088625e+01 6.190171e-21 2.987299e-01)) ((-3.596700e+01 -2.868618e+02 2.710518e+00) (-1.493649e-02 1.071236e+01 5.443123e-01))
0.0240238     	((5.863184e+01 -6.389243e-18 6.880945e+02) (1.077548e+01 4.377914e-21 3.030534e-01)) ((-3.440473e+01 -2.627292e+02 2.931592e+00) (-1.515267e-02 1.060175e+01 5.387742e-01))
0.0246895     	((5.199759e+01 -8.172539e-18 7.242204e+02) (1.062609e+01 -1.070476e-21 3.121243e-01)) ((-3.621102e+01 -2.900065e+02 2.599880e+00) (-1.560621e-02 1.044915e+01 5.313043e-01))
0.0253552     	((4.848538e+01 -7.443613e-18 7.834261e+02) (1.071479e+01 -9.092507e-21 3.120595e-01)) ((-3.917131e+01 -3.417851e+02 2.424269e+00) (-1.560298e-02 1.054237e+01 5.357393e-01))
0.0258128     	((4.884692e+01 -9.046223e-18 7.735820e+02) (1.065723e+01 -1.337201e-20 3.105833e-01)) ((-3.867910e+01 -3.275608e+02 2.442346e+00) (-1.552917e-02 1.048878e+01 5.328616e-01))
0.0263195     	((5.628654e+01 -7.330686e-18 7.426182e+02) (1.060018e+01 -1.478746e-20 3.117139e-01)) ((-3.713091e+01 -3.017360e+02 2.814327e+00) (-1.558570e-02 1.043580e+01 5.300089e-01))
0.0268895     	((5.203216e+01 -6.982070e-18 7.271350e+02) (1.053517e+01 -1.441537e-20 3.156892e-01)) ((-3.635675e+01 -2.978172e+02 2.601608e+00) (-1.578446e-02 1.037258e+01 5.267585e-01))
0.0275138     	((5.495778e+01 -7.886159e-18 7.275575e+02) (1.046394e+01 -1.434880e-20 3.226726e-01)) ((-3.637787e+01 -2.896055e+02 2.747889e+00) (-1.613363e-02 1.030158e+01 5.231968e-01))
0.0282075     	((5.418637e+01 -6.907760e-18 7.487267e+02) (1.040081e+01 -8.806944e-21 3.319748e-01)) ((-3.743634e+01 -3.119518e+02 2.709319e+00) (-1.659874e-02 1.023586e+01 5.200407e-01))
0.0287691     	((3.969438e+01 -8.318210e-18 8.008237e+02) (1.041098e+01 -9.971705e-21 3.301549e-01)) ((-4.004118e+01 -3.613743e+02 1.984719e+00) (-1.650775e-02 1.025036e+01 5.205492e-01))
0.029393      	((5.329300e+01 -6.117972e-18 7.338204e+02) (1.034099e+01 -7.266678e-21 3.291111e-01)) ((-3.669102e+01 -3.053332e+02 2.664650e+00) (-1.645556e-02 1.018291e+01 5.170494e-01))
0.029835      	((4.448384e+01 -7.334120e-18 7.531755e+02) (1.027616e+01 -4.142415e-21 3.302322e-01)) ((-3.765877e+01 -3.239989e+02 2.224192e+00) (-1.651161e-02 1.011620e+01 5.138081e-01))
0.030319      	((5.942269e+01 -6.189732e-18 7.183158e+02) (1.021264e+01 -6.336218e-21 3.299895e-01)) ((-3.591579e+01 -2.846514e+02 2.971134e+00) (-1.649948e-02 1.005211e+01 5.106322e-01))
0.0308568     	((4.444728e+01 -9.389272e-18 8.213811e+02) (1.022239e+01 -6.438238e-21 3.208934e-01)) ((-4.106905e+01 -3.670878e+02 2.222364e+00) (-1.604467e-02 1.006822e+01 5.111196e-01))
0.0314664     	((5.058617e+01 -6.255093e-18 7.501562e+02) (1.016213e+01 -4.002278e-21 3.148886e-01)) ((-3.750781e+01 -3.181900e+02 2.529308e+00) (-1.574443e-02 1.000967e+01 5.081066e-01))
0.0319684     	((4.854365e+01 -7.809102e-18 7.621648e+02) (1.010663e+01 -7.116660e-21 3.102165e-01)) ((-3.810824e+01 -3.240139e+02 2.427182e+00) (-1.551083e-02 9.953843e+00 5.053317e-01))
0.0325038     	((5.087844e+01 -6.240059e-18 7.543699e+02) (1.007821e+01 -8.052107e-21 3.004085e-01)) ((-3.771850e+01 -3.190757e+02 2.543922e+00) (-1.502043e-02 9.928863e+00 5.039104e-01))
0.0330804     	((4.805449e+01 -7.471663e-18 7.751745e+02) (1.004844e+01 -8.543749e-21 2.876978e-01)) ((-3.875873e+01 -3.352572e+02 2.402724e+00) (-1.438489e-02 9.903019e+00 5.024220e-01))
0.0337095     	((4.695287e+01 -6.826161e-18 7.695102e+02) (9.999595e+00 -6.357361e-21 2.720191e-01)) ((-3.847551e+01 -3.328057e+02 2.347644e+00) (-1.360096e-02 9.857501e+00 4.999797e-01))
0.0344084     	((5.307155e+01 -7.269885e-18 7.952951e+02) (9.973132e+00 -8.160375e-21 2.451825e-01)) ((-3.976475e+01 -3.440179e+02 2.653577e+00) (-1.225912e-02 9.838902e+00 4.986566e-01))
0.0349676     	((3.795448e+01 -7.225590e-18 7.780984e+02) (9.934506e+00 -1.424315e-20 2.214958e-01)) ((-3.890492e+01 -3.485260e+02 1.897724e+00) (-1.107479e-02 9.804635e+00 4.967253e-01))
0.0355267     	((4.926079e+01 -5.439385e-18 7.694020e+02) (9.921815e+00 -1.879038e-20 1.910019e-01)) ((-3.847010e+01 -3.368297e+02 2.463039e+00) (-9.550093e-03 9.800078e+00 4.960908e-01))
0.0359741     	((3.991038e+01 -9.817885e-18 7.838352e+02) (9.914268e+00 -2.362375e-20 1.649656e-01)) ((-3.919176e+01 -3.530009e+02 1.995519e+00) (-8.248279e-03 9.798633e+00 4.957134e-01))
0.0364773     	((5.642913e+01 -1.227931e-17 7.894851e+02) (9.914252e+00 -2.803234e-20 1.356264e-01)) ((-3.947426e+01 -3.358826e+02 2.821456e+00) (-6.781322e-03 9.805960e+00 4.957126e-01))
0.0369806     	((4.313793e+01 -8.330880e-18 7.982239e+02) (9.916318e+00 -3.201932e-20 9.837685e-02)) ((-3.991120e+01 -3.561259e+02 2.156897e+00) (-4.918843e-03 9.818607e+00 4.958159e-01))
0.0374838     	((4.551612e+01 -6.743524e-18 7.994634e+02) (9.905301e+00 -3.417533e-20 5.482783e-02)) ((-3.997317e+01 -3.564480e+02 2.275806e+00) (-2.741391e-03 9.823079e+00 4.952650e-01))
0.037987      	((4.393213e+01 -6.812530e-18 8.045753e+02) (9.870854e+00 -3.505545e-20 -5.174396e-03)) ((-4.022877e+01 -3.617157e+02 2.196606e+00) (2.587198e-04 9.819303e+00 4.935427e-01))
0.0384903     	((4.610213e+01 -6.805418e-18 8.060177e+02) (9.819304e+00 -1.957263e-20 -5.502272e-02)) ((-4.030089e+01 -3.588387e+02 2.305106e+00) (2.751136e-03 9.793027e+00 4.909652e-01))
0.0389935     	((4.430438e+01 -6.827168e-18 7.960273e+02) (9.740254e+00 -8.696316e-21 -1.064021e-01)) ((-3.980137e+01 -3.553357e+02 2.215219e+00) (5.320105e-03 9.736311e+00 4.870127e-01))
0.0394968     	((4.355033e+01 -6.866050e-18 8.080275e+02) (9.677913e+00 1.358594e-22 -1.630919e-01)) ((-4.040137e+01 -3.635259e+02 2.177516e+00) (8.154596e-03 9.698086e+00 4.838957e-01))
0.04          	((4.584981e+01 -6.729430e-18 8.109490e+02) (9.660458e+00 4.167707e-21 -2.239111e-01)) ((-4.054745e+01 -3.635996e+02 2.292490e+00) (1.119556e-02 9.705927e+00 4.830229e-01))
0.0405714     	((3.818336e+01 -7.306515e-18 8.081355e+02) (9.676537e+00 6.083065e-21 -2.485433e-01)) ((-4.040678e+01 -3.624602e+02 1.909168e+00) (1.242716e-02 9.704142e+00 4.838269e-01))
0.0411982     	((4.513437e+01 -6.349515e-18 8.069447e+02) (9.707327e+00 2.388292e-20 -3.127616e-01)) ((-4.034724e+01 -3.597368e+02 2.256719e+00) (1.563808e-02 9.748503e+00 4.853664e-01))
0.0418047     	((3.537558e+01 -7.594714e-18 8.263481e+02) (9.712694e+00 2.757295e-20 -3.898736e-01)) ((-4.131740e+01 -3.807550e+02 1.768779e+00) (1.949368e-02 9.776554e+00 4.856347e-01))
0.0424786     	((4.235142e+01 -6.154546e-18 8.261616e+02) (9.717589e+00 1.705614e-20 -4.898251e-01)) ((-4.130808e+01 -3.759637e+02 2.117571e+00) (2.449126e-02 9.816849e+00 4.858794e-01))
0.0429397     	((3.126664e+01 -7.318779e-18 8.079821e+02) (9.739021e+00 1.031461e-20 -5.599458e-01)) ((-4.039910e+01 -3.742417e+02 1.563332e+00) (2.799729e-02 9.861885e+00 4.869511e-01))
0.0434566     	((4.428324e+01 -6.458528e-18 8.234264e+02) (9.777566e+00 7.304484e-21 -6.465346e-01)) ((-4.117132e+01 -3.684228e+02 2.214162e+00) (3.232673e-02 9.933700e+00 4.888783e-01))
0.0440475     	((3.996617e+01 -7.847392e-18 8.315780e+02) (9.831587e+00 4.133785e-21 -7.522081e-01)) ((-4.157890e+01 -3.763804e+02 1.998308e+00) (3.761040e-02 1.003055e+01 4.915794e-01))
0.0447122     	((3.822008e+01 -6.670985e-18 8.249175e+02) (9.906276e+00 -5.797135e-22 -8.730554e-01)) ((-4.124588e+01 -3.747202e+02 1.911004e+00) (4.365277e-02 1.015716e+01 4.953138e-01))
0.0453002     	((4.218685e+01 -6.591006e-18 8.238093e+02) (9.925732e+00 -6.463192e-21 -9.499032e-01)) ((-4.119046e+01 -3.717606e+02 2.109343e+00) (4.749516e-02 1.021590e+01 4.962866e-01))
0.0459393     	((2.982501e+01 -6.807456e-18 8.142543e+02) (9.940135e+00 -1.351040e-20 -1.037800e+00)) ((-4.071271e+01 -3.760259e+02 1.491251e+00) (5.188998e-02 1.027335e+01 4.970067e-01))
0.0466088     	((3.658694e+01 -3.916088e-18 7.881261e+02) (9.972012e+00 -3.022082e-20 -1.124703e+00)) ((-3.940630e+01 -3.590737e+02 1.829347e+00) (5.623516e-02 1.034254e+01 4.986006e-01))
0.0470146     	((3.122595e+01 -3.690707e-18 8.079392e+02) (1.000160e+01 -3.824474e-20 -1.181837e+00)) ((-4.039696e+01 -3.736624e+02 1.561298e+00) (5.909185e-02 1.039318e+01 5.000802e-01))
0.0474784     	((5.304073e+01 -6.970909e-18 8.470994e+02) (1.003235e+01 -4.991491e-20 -1.251169e+00)) ((-4.235497e+01 -3.665546e+02 2.652036e+00) (6.255843e-02 1.045027e+01 5.016174e-01))
0.0480001     	((3.434069e+01 -6.229143e-18 8.249617e+02) (1.005521e+01 -6.036374e-20 -1.337301e+00)) ((-4.124809e+01 -3.767977e+02 1.717035e+00) (6.686504e-02 1.050603e+01 5.027607e-01))
0.0485715     	((3.733577e+01 -5.828070e-18 8.173305e+02) (1.009106e+01 -6.900020e-20 -1.440131e+00)) ((-4.086653e+01 -3.701289e+02 1.866788e+00) (7.200655e-02 1.058287e+01 5.045531e-01))
0.049091      	((3.086411e+01 -6.824002e-18 7.775334e+02) (1.013118e+01 -7.314562e-20 -1.533853e+00)) ((-3.887667e+01 -3.487739e+02 1.543206e+00) (7.669265e-02 1.065848e+01 5.065589e-01))
0.0496652     	((3.787003e+01 -6.936821e-18 8.249782e+02) (1.017451e+01 -7.773656e-20 -1.644401e+00)) ((-4.124891e+01 -3.704578e+02 1.893502e+00) (8.222007e-02 1.074621e+01 5.087256e-01))
0.0502731     	((3.494838e+01 -7.362742e-18 8.235822e+02) (1.022187e+01 -8.164599e-20 -1.764293e+00)) ((-4.117911e+01 -3.732572e+02 1.747419e+00) (8.821463e-02 1.084290e+01 5.110933e-01))
0.0509216     	((3.419990e+01 -7.258954e-18 8.242397e+02) (1.028127e+01 -8.511595e-20 -1.896626e+00)) ((-4.121198e+01 -3.732869e+02 1.709995e+00) (9.483130e-02 1.095849e+01 5.140636e-01))
0.051489      	((3.831173e+01 -6.030658e-18 8.172492e+02) (1.034613e+01 -8.868603e-20 -2.023507e+00)) ((-4.086246e+01 -3.652771e+02 1.915587e+00) (1.011753e-01 1.107901e+01 5.173064e-01))
0.0520969     	((2.243328e+01 1.170860e-17 7.704486e+02) (1.042205e+01 -8.563878e-20 -2.158608e+00)) ((-3.852243e+01 -3.471929e+02 1.121664e+00) (1.079304e-01 1.121332e+01 5.211023e-01))
0.0527555     	((3.724168e+01 -4.026405e-18 7.980386e+02) (1.051310e+01 -8.219444e-20 -2.306931e+00)) ((-3.990193e+01 -3.554555e+02 1.862084e+00) (1.153465e-01 1.136905e+01 5.256549e-01))
0.0532083     	((2.663207e+01 -4.005022e-18 7.972392e+02) (1.058175e+01 -7.835502e-20 -2.413066e+00)) ((-3.986196e+01 -3.635242e+02 1.331604e+00) (1.206533e-01 1.148276e+01 5.290873e-01))
0.0536934     	((4.303411e+01 -6.213001e-18 8.122511e+02) (1.066948e+01 -7.020790e-20 -2.521435e+00)) ((-4.061255e+01 -3.521021e+02 2.151705e+00) (1.260717e-01 1.161565e+01 5.334741e-01))
0.0542189     	((2.950132e+01 -6.019130e-18 8.031914e+02) (1.077723e+01 -6.186207e-20 -2.637779e+00)) ((-4.015957e+01 -3.607337e+02 1.475066e+00) (1.318889e-01 1.177018e+01 5.388616e-01))
0.0547971     	((2.528159e+01 6.308200e-18 7.340939e+02) (1.090008e+01 -5.283650e-20 -2.755424e+00)) ((-3.670469e+01 -3.161195e+02 1.264079e+00) (1.377712e-01 1.193843e+01 5.450038e-01))
0.0553173     	((3.049312e+01 -6.227984e-20 7.919131e+02) (1.100732e+01 -4.570792e-20 -2.866772e+00)) ((-3.959565e+01 -3.514255e+02 1.524656e+00) (1.433386e-01 1.208977e+01 5.503662e-01))
0.0558376     	((3.233172e+01 1.623091e-18 7.919863e+02) (1.111885e+01 -3.901642e-20 -2.981034e+00)) ((-3.959932e+01 -3.474609e+02 1.616586e+00) (1.490517e-01 1.224814e+01 5.559427e-01))
0.0563579     	((3.039689e+01 1.714121e-17 7.792366e+02) (1.123290e+01 -3.166465e-20 -3.097284e+00)) ((-3.896183e+01 -3.380998e+02 1.519845e+00) (1.548642e-01 1.241143e+01 5.616451e-01))
0.0568782     	((2.837462e+01 1.639842e-17 7.773428e+02) (1.135276e+01 -2.474538e-20 -3.221440e+00)) ((-3.886714e+01 -3.388517e+02 1.418731e+00) (1.610720e-01 1.258740e+01 5.676379e-01))
0.0573985     	((3.673015e+00 6.845301e-17 7.686538e+02) (1.145874e+01 -1.860732e-20 -3.335093e+00)) ((-3.843269e+01 -3.339393e+02 1.836507e-01) (1.667546e-01 1.274227e+01 5.729369e-01))
0.0579188     	((5.068706e-01 9.174082e-17 8.918616e+02) (1.154503e+01 -1.181888e-20 -3.454771e+00)) ((-4.459308e+01 -4.141551e+02 2.534353e-02) (1.727385e-01 1.288240e+01 5.772513e-01))
0.0584391     	((2.075198e+01 5.870267e-17 8.127750e+02) (1.163893e+01 -6.842363e-21 -3.575433e+00)) ((-4.063875e+01 -3.569239e+02 1.037599e+00) (1.787716e-01 1.303177e+01 5.819466e-01))
0.0589594     	((1.823431e+01 5.467206e-17 8.028902e+02) (1.169636e+01 -6.520203e-21 -3.695006e+00)) ((-4.014451e+01 -3.536317e+02 9.117157e-01) (1.847503e-01 1.314308e+01 5.848178e-01))
0.0594797     	((8.245321e+00 6.277484e-17 6.788200e+02) (1.172694e+01 -1.103278e-20 -3.809969e+00)) ((-3.394100e+01 -2.714954e+02 4.122661e-01) (1.904985e-01 1.322392e+01 5.863472e-01))
0.06          	((1.562615e+01 5.888797e-17 7.682404e+02) (1.179008e+01 -1.415532e-20 -3.925841e+00)) ((-3.841202e+01 -3.306955e+02 7.813076e-01) (1.962921e-01 1.333847e+01 5.895039e-01))
0.0605714     	((2.081197e+01 5.881009e-17 7.805852e+02) (1.188991e+01 -1.591919e-20 -4.059574e+00)) ((-3.902926e+01 -3.351819e+02 1.040598e+00) (2.029787e-01 1.350004e+01 5.944954e-01))
0.0611602     	((2.026574e+01 5.776761e-17 7.729571e+02) (1.200535e+01 -1.671311e-20 -4.205105e+00)) ((-3.864786e+01 -3.309784e+02 1.013287e+00) (2.102552e-01 1.368555e+01 6.002673e-01))
0.0618098     	((3.954468e-01 1.477616e-16 6.476532e+02) (1.213053e+01 -1.005203e-20 -4.369547e+00)) ((-3.238266e+01 -2.494996e+02 1.977234e-02) (2.184774e-01 1.389185e+01 6.065263e-01))
0.0624595     	((1.635639e+01 5.467589e-17 7.131858e+02) (1.224675e+01 -1.304504e-20 -4.541003e+00)) ((-3.565929e+01 -2.878581e+02 8.178193e-01) (2.270502e-01 1.409520e+01 6.123376e-01))
0.0629754     	((-6.065531e+01 -6.915288e-17 8.248317e+02) (1.229127e+01 -1.086273e-20 -4.679217e+00)) ((-4.124159e+01 -3.487145e+02 -3.032766e+00) (2.339609e-01 1.420751e+01 6.145636e-01))
0.0635429     	((-6.204481e+00 -2.771999e-17 7.566774e+02) (1.233381e+01 -1.004739e-20 -4.817957e+00)) ((-3.783387e+01 -3.145202e+02 -3.102241e-01) (2.408979e-01 1.431607e+01 6.166907e-01))
0.064         	((-3.951360e+01 6.997597e-17 4.935666e+02) (1.238620e+01 -9.706361e-21 -4.935752e+00)) ((-2.467833e+01 -1.425946e+02 -1.975680e+00) (2.467876e-01 1.442619e+01 6.193102e-01))
0.0645161     	((1.084129e+01 -2.047339e-17 7.472276e+02) (1.243816e+01 -1.065480e-20 -5.072010e+00)) ((-3.736138e+01 -3.011712e+02 5.420647e-01) (2.536005e-01 1.454876e+01 6.219079e-01))
0.0650896     	((1.284638e+00 -2.382982e-17 7.473462e+02) (1.248839e+01 -1.809917e-20 -5.215818e+00)) ((-3.736731e+01 -3.094371e+02 6.423191e-02) (2.607909e-01 1.467416e+01 6.244193e-01))
0.0656418     	((-2.022781e+02 -2.017778e-17 3.176601e+02) (1.252435e+01 -2.046452e-20 -5.317347e+00)) ((-1.588300e+01 4.487975e+01 -1.011390e+01) (2.658674e-01 1.475458e+01 6.262176e-01))
0.0661546     	((-8.770474e+01 9.493024e-17 3.991172e+02) (1.257838e+01 -2.945037e-21 -5.353313e+00)) ((-1.995586e+01 -5.794235e+01 -4.385237e+00) (2.676657e-01 1.480135e+01 6.289190e-01))
0.0666871     	((-5.317017e+02 1.059979e-15 -1.159767e+03) (1.267272e+01 1.440674e-20 -5.402835e+00)) ((5.798837e+01 1.113323e+03 -2.658509e+01) (2.701418e-01 1.490688e+01 6.336360e-01))
0.0672197     	((-8.118166e+02 1.083273e-15 -1.885863e+03) (1.263083e+01 1.925506e-20 -5.502556e+00)) ((9.429313e+01 1.651622e+03 -4.059083e+01) (2.751278e-01 1.493013e+01 6.315416e-01))
0.0677522     	((2.637589e+01 -6.710105e-17 5.675222e+02) (1.267666e+01 2.610666e-20 -5.604092e+00)) ((-2.837611e+01 -1.975002e+02 1.318794e+00) (2.802046e-01 1.504680e+01 6.338330e-01))
0.0682847     	((3.244707e+01 -3.508808e-17 6.937189e+02) (1.277938e+01 3.202911e-20 -5.704931e+00)) ((-3.468595e+01 -2.746032e+02 1.622354e+00) (2.852466e-01 1.522529e+01 6.389689e-01))
0.0687353     	((3.057430e+01 -2.981476e-17 6.958542e+02) (1.285966e+01 3.157362e-20 -5.775205e+00)) ((-3.479271e+01 -2.740388e+02 1.528715e+00) (2.887603e-01 1.535814e+01 6.429829e-01))
0.069225      	((3.117482e+01 -5.277038e-18 6.733820e+02) (1.294299e+01 2.892417e-20 -5.831300e+00)) ((-3.366910e+01 -2.577290e+02 1.558741e+00) (2.915650e-01 1.548608e+01 6.471496e-01))
0.0697638     	((3.223884e+01 -1.927778e-17 6.870236e+02) (1.303390e+01 2.294910e-20 -5.871977e+00)) ((-3.435118e+01 -2.708692e+02 1.611942e+00) (2.935988e-01 1.561360e+01 6.516951e-01))
0.0703025     	((2.745353e+01 -6.390297e-18 6.383827e+02) (1.312158e+01 1.976688e-20 -5.899280e+00)) ((-3.191914e+01 -2.386428e+02 1.372676e+00) (2.949640e-01 1.572844e+01 6.560791e-01))
0.0708413     	((2.803243e+01 -1.738858e-17 6.613467e+02) (1.317267e+01 1.915243e-20 -5.847814e+00)) ((-3.306734e+01 -2.580854e+02 1.401622e+00) (2.923907e-01 1.576290e+01 6.586336e-01))
0.0714137     	((3.078531e+01 -1.920676e-17 6.529012e+02) (1.323248e+01 1.830049e-20 -5.780691e+00)) ((-3.264506e+01 -2.513365e+02 1.539265e+00) (2.890346e-01 1.579887e+01 6.616238e-01))
0.0718656     	((1.263270e+01 -1.466669e-18 5.428133e+02) (1.329153e+01 1.821114e-20 -5.735869e+00)) ((-2.714066e+01 -1.819364e+02 6.316352e-01) (2.867934e-01 1.584364e+01 6.645765e-01))
0.0723175     	((2.413556e+01 -2.030941e-17 6.132840e+02) (1.338368e+01 1.839637e-20 -5.703716e+00)) ((-3.066420e+01 -2.290865e+02 1.206778e+00) (2.851858e-01 1.593037e+01 6.691839e-01))
0.0727694     	((2.342012e+01 -1.728817e-17 6.203081e+02) (1.352367e+01 1.794983e-20 -5.627035e+00)) ((-3.101541e+01 -2.339460e+02 1.171006e+00) (2.813517e-01 1.604665e+01 6.761835e-01))
0.0731948     	((-1.486786e+01 9.846696e-17 7.123194e+02) (1.362741e+01 1.627694e-20 -5.545482e+00)) ((-3.561597e+01 -2.911878e+02 -7.433928e-01) (2.772741e-01 1.611993e+01 6.813703e-01))
0.0736201     	((-6.355915e+00 4.070730e-17 5.265429e+02) (1.374336e+01 1.150099e-20 -5.492984e+00)) ((-2.632715e+01 -1.670049e+02 -3.177958e-01) (2.746492e-01 1.621879e+01 6.871678e-01))
0.0740454     	((-1.567273e+02 3.339514e-16 -5.135063e+02) (1.375263e+01 1.236057e-20 -5.442873e+00)) ((2.567532e+01 4.660562e+02 -7.836367e+00) (2.721437e-01 1.620412e+01 6.876315e-01))
0.0744707     	((-1.076363e+02 2.198960e-16 3.124098e+01) (1.377851e+01 8.142290e-21 -5.394865e+00)) ((-1.562049e+00 1.485413e+02 -5.381813e+00) (2.697432e-01 1.621419e+01 6.889255e-01))
0.0748961     	((-3.663847e+01 1.370618e-16 4.619946e+02) (1.382710e+01 1.827404e-21 -5.294812e+00)) ((-2.309973e+01 -1.254540e+02 -1.831923e+00) (2.647406e-01 1.622921e+01 6.913551e-01))
0.0753214     	((-4.776493e+02 2.823859e-16 -3.807947e+02) (1.376907e+01 -7.766603e-21 -5.130990e+00)) ((1.903973e+01 5.344778e+02 -2.388246e+01) (2.565495e-01 1.610950e+01 6.884534e-01))