# Forces      
# CofR        : (0.000000e+00 0.000000e+00 -1.000000e+00)
# Time        forces(pressure viscous)	moments(pressure viscous)
0             	((0.000000e+00 8.429467e-17 5.115908e-13) (5.156414e+00 -1.433941e-20 6.766731e-01)) ((8.881784e-15 -1.136868e-13 3.552714e-15) (-3.383365e-02 4.822888e+00 2.578207e-01))
1.19976e-05   	((9.580044e+04 -1.668117e-14 5.048182e+05) (5.199240e+00 -1.577087e-20 6.173743e-01)) ((-2.524091e+04 -6.151861e+04 4.790022e+03) (-3.086872e-02 4.884028e+00 2.599620e-01))
2.63878e-05   	((1.494095e+04 -3.898115e-15 8.799101e+04) (5.211978e+00 -1.858235e-20 6.008615e-01)) ((-4.399550e+03 -1.518591e+04 7.470475e+02) (-3.004307e-02 4.900140e+00 2.605989e-01))
4.36511e-05   	((8.466650e+03 -1.814622e-15 4.547669e+04) (5.231159e+00 -2.248821e-20 5.949221e-01)) ((-2.273834e+03 -7.248711e+03 4.233325e+02) (-2.974611e-02 4.920905e+00 2.615579e-01))
6.43527e-05   	((5.683905e+03 -1.372382e-15 3.322257e+04) (5.256479e+00 -2.237182e-20 5.917292e-01)) ((-1.661129e+03 -5.683939e+03 2.841953e+02) (-2.958646e-02 4.946920e+00 2.628239e-01))
8.91792e-05   	((4.316680e+03 -8.429895e-16 2.387435e+04) (5.288147e+00 -2.197790e-20 5.898640e-01)) ((-1.193717e+03 -3.990596e+03 2.158340e+02) (-2.949320e-02 4.978885e+00 2.644074e-01))
0.000118941   	((3.044400e+03 -5.442846e-16 1.699187e+04) (5.325629e+00 -2.018657e-20 5.898701e-01)) ((-8.495934e+02 -2.902089e+03 1.522200e+02) (-2.949350e-02 5.015600e+00 2.662814e-01))
0.000154634   	((2.745225e+03 -3.209371e-16 1.339898e+04) (5.373834e+00 -1.764424e-20 5.905320e-01)) ((-6.699489e+02 -2.034712e+03 1.372613e+02) (-2.952660e-02 5.062517e+00 2.686917e-01))
0.000197405   	((1.671412e+03 -6.717770e-16 1.320683e+04) (5.431916e+00 -1.860606e-20 5.873788e-01)) ((-6.603415e+02 -3.987713e+03 8.357059e+01) (-2.936894e-02 5.122079e+00 2.715958e-01))
0.000248707   	((2.009981e+03 -9.333200e-17 8.742626e+03) (5.506848e+00 -1.771177e-20 5.858496e-01)) ((-4.371313e+02 -1.321582e+03 1.004990e+02) (-2.929248e-02 5.196872e+00 2.753424e-01))
0.000310237   	((1.431124e+03 -6.904858e-17 6.538101e+03) (5.597964e+00 -1.630786e-20 5.857816e-01)) ((-3.269050e+02 -1.023257e+03 7.155622e+01) (-2.928908e-02 5.287246e+00 2.798982e-01))
0.000383982   	((1.544594e+03 1.646627e-17 6.074338e+03) (5.718313e+00 -1.669189e-20 5.880198e-01)) ((-3.037169e+02 -9.027528e+02 7.722968e+01) (-2.940099e-02 5.404602e+00 2.859157e-01))
0.000472342   	((2.494907e+03 3.891841e-16 6.350294e+03) (5.886657e+00 -1.708978e-20 5.875997e-01)) ((-3.175147e+02 -1.141261e+03 1.247454e+02) (-2.937999e-02 5.572312e+00 2.943328e-01))
0.000577897   	((3.533695e+03 7.688432e-16 6.307766e+03) (6.131090e+00 -1.825463e-20 5.724971e-01)) ((-3.153883e+02 2.232605e+02 1.766848e+02) (-2.862486e-02 5.817091e+00 3.065545e-01))
0.000704014   	((6.639967e+02 -6.847018e-17 3.407830e+03) (6.402461e+00 -1.775032e-20 5.776398e-01)) ((-1.703915e+02 -6.640261e+02 3.319984e+01) (-2.888199e-02 6.084637e+00 3.201231e-01))
0.000854764   	((8.202697e+02 8.419727e-17 2.840137e+03) (6.769022e+00 -1.049590e-20 6.002595e-01)) ((-1.420068e+02 -1.057119e+03 4.101348e+01) (-3.001298e-02 6.442498e+00 3.384511e-01))
0.00103538    	((4.521627e+02 -3.101624e-17 2.366745e+03) (7.217657e+00 -3.458092e-21 6.236102e-01)) ((-1.183372e+02 -4.824459e+02 2.260813e+01) (-3.118051e-02 6.882602e+00 3.608828e-01))
0.00125089    	((3.652123e+02 -6.317899e-17 2.178757e+03) (7.730748e+00 6.004165e-22 6.460967e-01)) ((-1.089379e+02 -5.395830e+02 1.826061e+01) (-3.230484e-02 7.390091e+00 3.865374e-01))
0.00150772    	((4.426114e+02 -2.049517e-16 1.659821e+03) (8.295650e+00 -4.133021e-21 6.872881e-01)) ((-8.299106e+01 -6.371814e+02 2.213057e+01) (-3.436441e-02 7.942676e+00 4.147825e-01))
0.00181593    	((2.759341e+02 -2.682999e-17 1.524577e+03) (8.904126e+00 1.486454e-21 7.216639e-01)) ((-7.622884e+01 -3.222596e+02 1.379671e+01) (-3.608319e-02 8.540269e+00 4.452063e-01))
0.00217961    	((1.858281e+02 -1.316084e-16 2.037314e+03) (9.549273e+00 5.030910e-21 7.461715e-01)) ((-1.018657e+02 -8.246504e+02 9.291406e+00) (-3.730858e-02 9.180328e+00 4.774637e-01))
0.00261425    	((2.671623e+02 -5.314123e-17 8.063599e+02) (1.021707e+01 5.850458e-21 7.943720e-01)) ((-4.031799e+01 -1.494005e+02 1.335811e+01) (-3.971860e-02 9.828081e+00 5.108534e-01))
0.0031256     	((1.347052e+02 -9.786095e-17 1.667370e+03) (1.087291e+01 2.227456e-20 8.251442e-01)) ((-8.336849e+01 -7.057339e+02 6.735258e+00) (-4.125721e-02 1.047382e+01 5.436455e-01))
0.00370748    	((1.575161e+02 -1.956290e-17 1.044626e+03) (1.146919e+01 2.741920e-20 8.525534e-01)) ((-5.223131e+01 -3.223500e+02 7.875807e+00) (-4.262767e-02 1.106486e+01 5.734597e-01))
0.00435918    	((9.766667e+01 1.764738e-17 1.564956e+03) (1.197128e+01 8.542280e-21 8.319621e-01)) ((-7.824778e+01 -7.337467e+02 4.883333e+00) (-4.159811e-02 1.159952e+01 5.985640e-01))
0.00507012    	((5.883861e+01 -1.223749e-16 2.400818e+03) (1.240485e+01 3.424571e-21 8.314739e-01)) ((-1.200409e+02 -1.253402e+03 2.941931e+00) (-4.157370e-02 1.204907e+01 6.202427e-01))
0.00550924    	((1.292238e+02 -3.129713e-18 8.553311e+02) (1.263563e+01 -3.181315e-22 8.338767e-01)) ((-4.276655e+01 -2.790764e+02 6.461188e+00) (-4.169383e-02 1.228816e+01 6.317817e-01))
0.00602676    	((9.840491e+01 -2.254290e-17 1.070004e+03) (1.285782e+01 -2.621011e-21 8.264102e-01)) ((-5.350019e+01 -3.845152e+02 4.920246e+00) (-4.132051e-02 1.252394e+01 6.428910e-01))
0.0066343     	((8.250849e+01 -2.396393e-17 1.017793e+03) (1.305393e+01 -4.809217e-21 8.206919e-01)) ((-5.088963e+01 -3.851508e+02 4.125424e+00) (-4.103460e-02 1.273435e+01 6.526967e-01))
0.00705197    	((8.735337e+01 -1.939759e-17 9.426709e+02) (1.316905e+01 -5.281993e-21 8.167710e-01)) ((-4.713354e+01 -3.394408e+02 4.367668e+00) (-4.083855e-02 1.285853e+01 6.584526e-01))
0.00746965    	((9.359425e+01 -1.389220e-17 8.335483e+02) (1.326424e+01 -5.528731e-21 8.091726e-01)) ((-4.167742e+01 -3.060197e+02 4.679713e+00) (-4.045863e-02 1.296397e+01 6.632121e-01))
0.00788733    	((7.641191e+01 -1.790419e-17 9.064120e+02) (1.333801e+01 -5.430257e-21 8.002433e-01)) ((-4.532060e+01 -3.230436e+02 3.820595e+00) (-4.001216e-02 1.304837e+01 6.669003e-01))
0.00831993    	((7.483779e+01 -1.632369e-17 8.645898e+02) (1.339619e+01 -5.080953e-21 7.913363e-01)) ((-4.322949e+01 -3.018404e+02 3.741890e+00) (-3.956681e-02 1.311732e+01 6.698095e-01))
0.00878713    	((7.448640e+01 -1.505907e-17 7.922108e+02) (1.344245e+01 -4.231218e-21 7.864747e-01)) ((-3.961054e+01 -2.774918e+02 3.724320e+00) (-3.932374e-02 1.317313e+01 6.721225e-01))
0.0092968     	((7.042618e+01 -1.383627e-17 8.060253e+02) (1.344172e+01 -3.869928e-21 7.814509e-01)) ((-4.030127e+01 -3.107262e+02 3.521309e+00) (-3.907254e-02 1.317970e+01 6.720858e-01))
0.00986013    	((5.587656e+01 -1.891116e-17 1.013534e+03) (1.334618e+01 -1.048131e-20 7.802501e-01)) ((-5.067668e+01 -4.382562e+02 2.793828e+00) (-3.901250e-02 1.308590e+01 6.673088e-01))
0.0104235     	((5.602979e+01 -1.724613e-17 9.932608e+02) (1.347314e+01 -7.102399e-21 7.705860e-01)) ((-4.966304e+01 -4.265616e+02 2.801489e+00) (-3.852930e-02 1.322089e+01 6.736570e-01))
0.0109868     	((6.336678e+01 -1.472297e-17 8.540664e+02) (1.344445e+01 -7.540209e-21 7.465606e-01)) ((-4.270332e+01 -3.278603e+02 3.168339e+00) (-3.732803e-02 1.321163e+01 6.722225e-01))
0.0115501     	((6.687193e+01 -1.294078e-17 7.839832e+02) (1.341272e+01 -4.553314e-21 7.211685e-01)) ((-3.919916e+01 -2.832838e+02 3.343596e+00) (-3.605843e-02 1.319656e+01 6.706361e-01))
0.0120782     	((6.777352e+01 -1.166861e-17 6.836703e+02) (1.337248e+01 -3.048907e-21 7.065967e-01)) ((-3.418352e+01 -2.438539e+02 3.388676e+00) (-3.532983e-02 1.316514e+01 6.686238e-01))
0.0126441     	((6.615207e+01 -1.215496e-17 7.579264e+02) (1.331074e+01 -2.125126e-21 6.855917e-01)) ((-3.789632e+01 -2.687195e+02 3.307604e+00) (-3.427958e-02 1.311352e+01 6.655370e-01))
0.0131695     	((6.496162e+01 -1.207525e-17 7.585141e+02) (1.323861e+01 -2.943886e-21 6.652697e-01)) ((-3.792570e+01 -2.720182e+02 3.248081e+00) (-3.326349e-02 1.304936e+01 6.619307e-01))
0.0136949     	((6.119451e+01 -1.262189e-17 7.962532e+02) (1.319572e+01 1.016430e-21 6.437723e-01)) ((-3.981266e+01 -3.038665e+02 3.059725e+00) (-3.218862e-02 1.301337e+01 6.597858e-01))
0.0142203     	((6.218609e+01 -1.272489e-17 7.660413e+02) (1.312329e+01 7.668634e-22 6.187107e-01)) ((-3.830207e+01 -2.858455e+02 3.109304e+00) (-3.093554e-02 1.294985e+01 6.561647e-01))
0.0147458     	((6.177838e+01 -1.191341e-17 7.620820e+02) (1.305163e+01 -5.774987e-22 5.901406e-01)) ((-3.810410e+01 -2.836404e+02 3.088919e+00) (-2.950703e-02 1.288810e+01 6.525814e-01))
0.0152712     	((5.955703e+01 -1.188367e-17 7.119753e+02) (1.296666e+01 3.751937e-22 5.712641e-01)) ((-3.559876e+01 -2.744609e+02 2.977852e+00) (-2.856321e-02 1.280790e+01 6.483329e-01))
0.0157966     	((5.936206e+01 -1.260019e-17 7.788891e+02) (1.293414e+01 2.854384e-21 5.472348e-01)) ((-3.894446e+01 -3.018127e+02 2.968103e+00) (-2.736174e-02 1.278437e+01 6.467070e-01))
0.016322      	((6.087467e+01 -1.182904e-17 7.438668e+02) (1.287383e+01 3.488385e-21 5.262701e-01)) ((-3.719334e+01 -2.760240e+02 3.043733e+00) (-2.631351e-02 1.273092e+01 6.436917e-01))
0.0168475     	((5.902913e+01 -1.236930e-17 7.651202e+02) (1.282370e+01 2.742152e-21 5.059544e-01)) ((-3.825601e+01 -2.940784e+02 2.951456e+00) (-2.529772e-02 1.268852e+01 6.411850e-01))
0.0173729     	((5.861896e+01 -1.236518e-17 7.649304e+02) (1.275173e+01 1.306711e-21 4.894044e-01)) ((-3.824652e+01 -2.947633e+02 2.930948e+00) (-2.447022e-02 1.262151e+01 6.375867e-01))
0.0178983     	((5.655315e+01 -1.306068e-17 7.861122e+02) (1.270956e+01 2.107025e-21 4.710291e-01)) ((-3.930561e+01 -3.123205e+02 2.827657e+00) (-2.355146e-02 1.258633e+01 6.354778e-01))
0.0184237     	((5.959179e+01 -1.230599e-17 7.342917e+02) (1.263715e+01 2.627581e-21 4.528269e-01)) ((-3.671458e+01 -2.760666e+02 2.979590e+00) (-2.264134e-02 1.251923e+01 6.318575e-01))
0.0189492     	((5.586415e+01 -1.384750e-17 7.108518e+02) (1.257344e+01 5.375216e-22 4.424673e-01)) ((-3.554259e+01 -2.808112e+02 2.793208e+00) (-2.212337e-02 1.245707e+01 6.286721e-01))
0.0194746     	((5.773629e+01 -1.315720e-17 7.532050e+02) (1.247453e+01 3.104835e-21 4.302742e-01)) ((-3.766025e+01 -2.912772e+02 2.886815e+00) (-2.151371e-02 1.235963e+01 6.237267e-01))
0.02          	((5.870842e+01 -1.252001e-17 7.269373e+02) (1.236344e+01 4.814709e-21 4.187935e-01)) ((-3.634687e+01 -2.748939e+02 2.935421e+00) (-2.093967e-02 1.224883e+01 6.181722e-01))
0.0205128     	((5.348053e+01 -1.367944e-17 8.020232e+02) (1.233073e+01 2.357162e-21 4.028043e-01)) ((-4.010116e+01 -3.297798e+02 2.674027e+00) (-2.014022e-02 1.222091e+01 6.165365e-01))
0.0210395     	((5.738977e+01 -1.322376e-17 7.431279e+02) (1.222870e+01 2.117668e-21 3.874035e-01)) ((-3.715639e+01 -2.870794e+02 2.869489e+00) (-1.937017e-02 1.212252e+01 6.114350e-01))
0.0215519     	((5.669404e+01 -1.221636e-17 7.440173e+02) (1.211881e+01 4.719558e-21 3.747283e-01)) ((-3.720086e+01 -2.878386e+02 2.834702e+00) (-1.873642e-02 1.201365e+01 6.059406e-01))
0.0220644     	((5.487007e+01 -1.337889e-17 7.091204e+02) (1.199114e+01 5.796693e-21 3.633171e-01)) ((-3.545602e+01 -2.796303e+02 2.743504e+00) (-1.816585e-02 1.188626e+01 5.995568e-01))
0.0225768     	((5.083297e+01 -1.450927e-17 7.876199e+02) (1.196700e+01 2.990940e-21 3.510492e-01)) ((-3.938100e+01 -3.317592e+02 2.541648e+00) (-1.755246e-02 1.186496e+01 5.983502e-01))
0.0230893     	((5.620000e+01 -1.266589e-17 7.392752e+02) (1.186471e+01 1.133518e-21 3.378730e-01)) ((-3.696376e+01 -2.882186e+02 2.810000e+00) (-1.689365e-02 1.176586e+01 5.932354e-01))
0.0236017     	((5.602630e+01 -1.233358e-17 7.410683e+02) (1.175548e+01 2.525751e-21 3.279454e-01)) ((-3.705341e+01 -2.894358e+02 2.801315e+00) (-1.639727e-02 1.165690e+01 5.877740e-01))
0.0241142     	((5.551475e+01 -1.240455e-17 7.439673e+02) (1.163339e+01 4.095850e-21 3.204648e-01)) ((-3.719837e+01 -2.915081e+02 2.775737e+00) (-1.602324e-02 1.153297e+01 5.816693e-01))
0.0246266     	((5.098027e+01 -1.355647e-17 8.058901e+02) (1.161503e+01 2.522784e-21 3.086167e-01)) ((-4.029451e+01 -3.375677e+02 2.549014e+00) (-1.543084e-02 1.151809e+01 5.807515e-01))
0.0251391     	((5.436663e+01 -1.274370e-17 7.502994e+02) (1.152221e+01 3.630017e-21 2.947113e-01)) ((-3.751497e+01 -2.986196e+02 2.718331e+00) (-1.473557e-02 1.142990e+01 5.761105e-01))
0.0256515     	((5.183826e+01 -1.300679e-17 6.826676e+02) (1.141909e+01 5.403504e-21 2.912086e-01)) ((-3.413338e+01 -2.729227e+02 2.591913e+00) (-1.456043e-02 1.132433e+01 5.709547e-01))
0.026164      	((5.518724e+01 -1.209027e-17 7.351438e+02) (1.130694e+01 6.370019e-21 2.869940e-01)) ((-3.675719e+01 -2.884147e+02 2.759362e+00) (-1.434970e-02 1.120902e+01 5.653472e-01))
0.0266764     	((5.076525e+01 -1.321230e-17 7.936217e+02) (1.127297e+01 8.275469e-21 2.766292e-01)) ((-3.968109e+01 -3.320274e+02 2.538263e+00) (-1.383146e-02 1.117820e+01 5.636486e-01))
0.0271889     	((5.297585e+01 -1.263490e-17 7.616395e+02) (1.117261e+01 9.737545e-21 2.720362e-01)) ((-3.808197e+01 -3.077096e+02 2.648793e+00) (-1.360181e-02 1.107538e+01 5.586305e-01))
0.0277013     	((5.500358e+01 -1.138310e-17 7.318158e+02) (1.106923e+01 7.641076e-21 2.678288e-01)) ((-3.659079e+01 -2.851979e+02 2.750179e+00) (-1.339144e-02 1.096951e+01 5.534616e-01))
0.0282137     	((4.942227e+01 -1.349077e-17 8.084898e+02) (1.104824e+01 1.221641e-20 2.549401e-01)) ((-4.042449e+01 -3.432070e+02 2.471113e+00) (-1.274700e-02 1.095489e+01 5.524122e-01))
0.0287262     	((5.248671e+01 -1.212214e-17 7.555441e+02) (1.096313e+01 1.263389e-20 2.452587e-01)) ((-3.777720e+01 -3.052012e+02 2.624336e+00) (-1.226293e-02 1.087106e+01 5.481566e-01))
0.0292386     	((5.085676e+01 -1.242404e-17 6.679690e+02) (1.086665e+01 9.400402e-21 2.466915e-01)) ((-3.339845e+01 -2.633532e+02 2.542838e+00) (-1.233458e-02 1.076962e+01 5.433326e-01))
0.0297511     	((4.941956e+01 -1.341120e-17 8.000053e+02) (1.083573e+01 1.447791e-20 2.358926e-01)) ((-4.000026e+01 -3.385262e+02 2.470978e+00) (-1.179463e-02 1.074398e+01 5.417867e-01))
0.0302635     	((5.215247e+01 -1.282263e-17 7.575371e+02) (1.074329e+01 1.070991e-20 2.333164e-01)) ((-3.787686e+01 -3.067756e+02 2.607623e+00) (-1.166582e-02 1.064866e+01 5.371643e-01))
0.030776      	((5.244113e+01 -1.310446e-17 7.555104e+02) (1.066146e+01 9.231844e-21 2.296305e-01)) ((-3.777552e+01 -3.044575e+02 2.622057e+00) (-1.148152e-02 1.056532e+01 5.330729e-01))
0.0312884     	((4.803639e+01 -1.481064e-17 8.152274e+02) (1.064034e+01 1.421363e-20 2.188536e-01)) ((-4.076137e+01 -3.489521e+02 2.401820e+00) (-1.094268e-02 1.055013e+01 5.320168e-01))
0.0318009     	((5.052497e+01 -1.466021e-17 7.751667e+02) (1.056220e+01 1.179144e-20 2.137187e-01)) ((-3.875833e+01 -3.194785e+02 2.526249e+00) (-1.068594e-02 1.047149e+01 5.281100e-01))
0.0323133     	((4.809871e+01 -1.565393e-17 6.705848e+02) (1.047405e+01 8.675045e-21 2.155111e-01)) ((-3.352924e+01 -2.679719e+02 2.404936e+00) (-1.077556e-02 1.037863e+01 5.237027e-01))
0.0328258     	((4.800218e+01 -1.592374e-17 8.059870e+02) (1.045131e+01 1.329009e-20 2.070048e-01)) ((-4.029935e+01 -3.436024e+02 2.400109e+00) (-1.035024e-02 1.036050e+01 5.225655e-01))
0.0333382     	((5.016441e+01 -1.513118e-17 7.760093e+02) (1.037052e+01 8.743627e-21 2.063003e-01)) ((-3.880046e+01 -3.209035e+02 2.508221e+00) (-1.031502e-02 1.027663e+01 5.185258e-01))
0.0338506     	((4.971859e+01 -1.510366e-17 7.779065e+02) (1.029801e+01 7.792189e-21 2.048735e-01)) ((-3.889532e+01 -3.233329e+02 2.485930e+00) (-1.024367e-02 1.020180e+01 5.149006e-01))
0.0343631     	((4.898125e+01 -1.492656e-17 7.930064e+02) (1.024068e+01 7.898613e-21 2.002562e-01)) ((-3.965032e+01 -3.333880e+02 2.449063e+00) (-1.001281e-02 1.014531e+01 5.120342e-01))
0.0348755     	((4.863553e+01 -1.455361e-17 7.915995e+02) (1.017658e+01 7.701954e-21 1.957259e-01)) ((-3.957997e+01 -3.329984e+02 2.431776e+00) (-9.786295e-03 1.008173e+01 5.088289e-01))
0.035388      	((4.410080e+01 -1.449018e-17 7.249236e+02) (1.011545e+01 8.121542e-21 1.881773e-01)) ((-3.624618e+01 -3.047702e+02 2.205040e+00) (-9.408867e-03 1.002392e+01 5.057725e-01))
0.0359004     	((4.702461e+01 -1.380519e-17 7.784781e+02) (1.004844e+01 6.190640e-21 1.830210e-01)) ((-3.892391e+01 -3.284639e+02 2.351231e+00) (-9.151052e-03 9.959099e+00 5.024220e-01))
0.0364129     	((4.773264e+01 -1.332660e-17 8.015700e+02) (9.974276e+00 4.697961e-21 1.761780e-01)) ((-4.007850e+01 -3.396004e+02 2.386632e+00) (-8.808902e-03 9.888420e+00 4.987138e-01))
0.0369253     	((4.769544e+01 -1.287608e-17 8.062978e+02) (9.889039e+00 2.867078e-21 1.689230e-01)) ((-4.031489e+01 -3.420281e+02 2.384772e+00) (-8.446150e-03 9.807201e+00 4.944520e-01))
0.0374378     	((4.737858e+01 -1.274568e-17 8.059380e+02) (9.779539e+00 1.880401e-21 1.623466e-01)) ((-4.029690e+01 -3.425435e+02 2.368929e+00) (-8.117331e-03 9.701147e+00 4.889770e-01))
0.0379502     	((4.725062e+01 -1.266490e-17 8.051217e+02) (9.660979e+00 -2.418182e-21 1.563758e-01)) ((-4.025608e+01 -3.424948e+02 2.362531e+00) (-7.818789e-03 9.585427e+00 4.830489e-01))
0.0384627     	((4.091509e+01 -3.442895e-17 7.159538e+02) (9.564994e+00 -1.278114e-21 1.499843e-01)) ((-3.579769e+01 -3.034891e+02 2.045755e+00) (-7.499214e-03 9.492867e+00 4.782497e-01))
0.0389751     	((4.605622e+01 -1.648520e-17 7.920171e+02) (9.487517e+00 6.553681e-21 1.451379e-01)) ((-3.960086e+01 -3.372341e+02 2.302811e+00) (-7.256895e-03 9.417339e+00 4.743759e-01))
0.0394876     	((4.687208e+01 -1.319195e-17 8.089821e+02) (9.421073e+00 1.124359e-20 1.421056e-01)) ((-4.044911e+01 -3.452072e+02 2.343604e+00) (-7.105278e-03 9.350947e+00 4.710536e-01))
0.04          	((4.659097e+01 -1.332548e-17 8.099098e+02) (9.357602e+00 1.364726e-20 1.408204e-01)) ((-4.049549e+01 -3.460474e+02 2.329548e+00) (-7.041022e-03 9.285857e+00 4.678801e-01))
0.0405128     	((4.656642e+01 -1.289127e-17 8.154227e+02) (9.291811e+00 1.359830e-20 1.406334e-01)) ((-4.077114e+01 -3.488395e+02 2.328321e+00) (-7.031669e-03 9.217434e+00 4.645906e-01))
0.0410256     	((4.620317e+01 -1.312264e-17 8.160619e+02) (9.226579e+00 1.064420e-20 1.405122e-01)) ((-4.080310e+01 -3.495300e+02 2.310159e+00) (-7.025612e-03 9.149563e+00 4.613289e-01))
0.0415385     	((3.917951e+01 -2.343773e-17 7.280648e+02) (9.170693e+00 8.550575e-21 1.383330e-01)) ((-3.640324e+01 -3.091523e+02 1.958975e+00) (-6.916652e-03 9.092933e+00 4.585347e-01))
0.0420513     	((4.427036e+01 -1.506144e-17 8.035223e+02) (9.117355e+00 6.854353e-21 1.368414e-01)) ((-4.017612e+01 -3.448702e+02 2.213518e+00) (-6.842069e-03 9.038813e+00 4.558678e-01))
0.0425641     	((4.534470e+01 -1.296685e-17 8.239853e+02) (9.066541e+00 5.396429e-21 1.331483e-01)) ((-4.119926e+01 -3.550831e+02 2.267235e+00) (-6.657414e-03 8.989290e+00 4.533271e-01))
0.0430769     	((4.517581e+01 -1.273841e-17 8.285365e+02) (9.014096e+00 2.709614e-21 1.274458e-01)) ((-4.142683e+01 -3.580960e+02 2.258790e+00) (-6.372288e-03 8.940165e+00 4.507048e-01))
0.0435897     	((4.468874e+01 -1.302936e-17 8.284446e+02) (8.959103e+00 3.110178e-21 1.213615e-01)) ((-4.142223e+01 -3.591008e+02 2.234437e+00) (-6.068073e-03 8.889040e+00 4.479551e-01))
0.0441026     	((4.408262e+01 -1.326506e-17 8.273485e+02) (8.910141e+00 -6.517601e-22 1.230282e-01)) ((-4.136743e+01 -3.590780e+02 2.204131e+00) (-6.151408e-03 8.836202e+00 4.455070e-01))
0.0446154     	((3.611970e+01 -2.117659e-17 7.286316e+02) (8.859774e+00 2.478247e-21 1.256126e-01)) ((-3.643158e+01 -3.122053e+02 1.805985e+00) (-6.280630e-03 8.781204e+00 4.429887e-01))
0.0451282     	((4.171760e+01 -1.528949e-17 8.051970e+02) (8.791410e+00 4.358314e-21 1.271414e-01)) ((-4.025985e+01 -3.497246e+02 2.085880e+00) (-6.357072e-03 8.709175e+00 4.395705e-01))
0.045641      	((4.289245e+01 -1.353594e-17 8.280617e+02) (8.710473e+00 7.702108e-22 1.255238e-01)) ((-4.140309e+01 -3.608060e+02 2.144623e+00) (-6.276189e-03 8.627389e+00 4.355237e-01))
0.0461538     	((3.946111e+01 -1.391184e-17 8.293922e+02) (8.623306e+00 -1.161074e-21 1.191198e-01)) ((-4.146961e+01 -3.600924e+02 1.973055e+00) (-5.955990e-03 8.543988e+00 4.311653e-01))
0.0466667     	((4.340755e+01 -1.316952e-17 8.194647e+02) (8.548910e+00 -2.689386e-21 1.108304e-01)) ((-4.097324e+01 -3.531586e+02 2.170378e+00) (-5.541521e-03 8.474975e+00 4.274455e-01))
0.0471795     	((4.247435e+01 -1.161398e-17 8.209807e+02) (8.494422e+00 -1.395633e-20 1.093834e-01)) ((-4.104903e+01 -3.545089e+02 2.123718e+00) (-5.469171e-03 8.419016e+00 4.247211e-01))
0.0476923     	((4.063004e+01 -1.425537e-17 7.935028e+02) (8.454780e+00 -2.309200e-20 9.121567e-02)) ((-3.967514e+01 -3.406165e+02 2.031502e+00) (-4.560783e-03 8.390934e+00 4.227390e-01))
0.0482051     	((3.473078e+01 -1.654838e-17 7.304346e+02) (8.412530e+00 -2.353533e-20 8.687515e-02)) ((-3.652173e+01 -3.091358e+02 1.736539e+00) (-4.343757e-03 8.351854e+00 4.206265e-01))
0.0487179     	((4.281288e+01 -1.272074e-17 8.301231e+02) (8.369630e+00 -2.414823e-20 7.120052e-02)) ((-4.150616e+01 -3.596105e+02 2.140644e+00) (-3.560026e-03 8.320651e+00 4.184815e-01))
0.0492308     	((4.184185e+01 -1.181455e-17 8.336294e+02) (8.332283e+00 -2.304414e-20 5.260850e-02)) ((-4.168147e+01 -3.620951e+02 2.092093e+00) (-2.630425e-03 8.297528e+00 4.166141e-01))
0.0497436     	((4.205550e+01 -1.329934e-17 8.313356e+02) (8.298751e+00 -2.188228e-20 3.217142e-02)) ((-4.156678e+01 -3.608022e+02 2.102775e+00) (-1.608571e-03 8.279730e+00 4.149375e-01))
0.0502564     	((4.109494e+01 -1.441950e-17 8.196608e+02) (8.271350e+00 -2.169843e-20 9.274062e-03)) ((-4.098304e+01 -3.553978e+02 2.054747e+00) (-4.637031e-04 8.269855e+00 4.135675e-01))
0.0507692     	((3.939238e+01 -1.533433e-17 8.187614e+02) (8.249525e+00 -1.988293e-20 -1.278761e-02)) ((-4.093807e+01 -3.566525e+02 1.969619e+00) (6.393805e-04 8.264819e+00 4.124763e-01))
0.0512821     	((2.375356e+01 -2.372913e-17 7.646692e+02) (8.239408e+00 -1.978510e-20 -3.097184e-02)) ((-3.823346e+01 -3.400465e+02 1.187678e+00) (1.548592e-03 8.268598e+00 4.119704e-01))
0.0517949     	((3.238456e+01 -1.786076e-17 8.994211e+02) (8.235477e+00 -1.788860e-20 -4.804345e-02)) ((-4.497105e+01 -4.107555e+02 1.619228e+00) (2.402172e-03 8.276921e+00 4.117738e-01))
0.0523077     	((3.540082e+01 -1.753565e-17 8.706241e+02) (8.251405e+00 -1.357635e-20 -6.281526e-02)) ((-4.353121e+01 -3.889878e+02 1.770041e+00) (3.140763e-03 8.302606e+00 4.125702e-01))
0.0528205     	((3.551068e+01 -1.803241e-17 8.471810e+02) (8.278876e+00 -9.720611e-21 -7.580107e-02)) ((-4.235905e+01 -3.739566e+02 1.775534e+00) (3.790053e-03 8.337951e+00 4.139438e-01))
0.0533333     	((3.654398e+01 -1.737289e-17 8.552525e+02) (8.305362e+00 -7.458265e-21 -8.828644e-02)) ((-4.276263e+01 -3.773918e+02 1.827199e+00) (4.414322e-03 8.371331e+00 4.152681e-01))
0.0538462     	((3.629979e+01 -1.722130e-17 8.543833e+02) (8.338267e+00 -5.168536e-21 -1.038015e-01)) ((-4.271917e+01 -3.766954e+02 1.814990e+00) (5.190074e-03 8.413123e+00 4.169133e-01))
0.054359      	((2.250217e+01 7.195569e-18 7.126856e+02) (8.389734e+00 -4.098994e-21 -1.157498e-01)) ((-3.563428e+01 -3.016222e+02 1.125108e+00) (5.787489e-03 8.471041e+00 4.194867e-01))
0.0548718     	((3.580974e+01 -1.726460e-17 8.594959e+02) (8.447726e+00 -3.372088e-21 -1.324880e-01)) ((-4.297479e+01 -3.797209e+02 1.790487e+00) (6.624401e-03 8.538389e+00 4.223863e-01))
0.0553846     	((3.532423e+01 -1.707612e-17 8.595221e+02) (8.519766e+00 -3.050524e-21 -1.515516e-01)) ((-4.297611e+01 -3.799245e+02 1.766212e+00) (7.577579e-03 8.621174e+00 4.259883e-01))
0.0558462     	((3.316494e+01 -1.382345e-17 8.421582e+02) (8.590627e+00 -5.386635e-21 -1.709877e-01)) ((-4.210791e+01 -3.711037e+02 1.658247e+00) (8.549384e-03 8.702959e+00 4.295314e-01))
0.0563077     	((3.399477e+01 -1.616677e-17 8.525892e+02) (8.666487e+00 -4.715991e-21 -1.931644e-01)) ((-4.262946e+01 -3.767040e+02 1.699739e+00) (9.658222e-03 8.791387e+00 4.333244e-01))
0.0567692     	((3.333240e+01 -1.606523e-17 8.489606e+02) (8.739431e+00 -2.920366e-21 -2.120914e-01)) ((-4.244803e+01 -3.746168e+02 1.666620e+00) (1.060457e-02 8.873860e+00 4.369716e-01))
0.0572308     	((1.464341e+01 -3.932318e-18 6.649797e+02) (8.832514e+00 -5.649388e-21 -2.369916e-01)) ((-3.324899e+01 -2.743815e+02 7.321705e-01) (1.184958e-02 8.981241e+00 4.416257e-01))
0.0576923     	((3.106385e+01 -1.529324e-17 8.378573e+02) (8.938107e+00 -5.019854e-21 -2.719087e-01)) ((-4.189286e+01 -3.686427e+02 1.553192e+00) (1.359544e-02 9.108667e+00 4.469053e-01))
0.0581538     	((3.162202e+01 -1.564315e-17 8.479160e+02) (9.064426e+00 7.752814e-22 -3.157433e-01)) ((-4.239580e+01 -3.735744e+02 1.581101e+00) (1.578716e-02 9.263780e+00 4.532213e-01))
0.0586154     	((3.176073e+01 -1.573526e-17 8.543617e+02) (9.197755e+00 -9.156909e-21 -3.617324e-01)) ((-4.271808e+01 -3.765080e+02 1.588037e+00) (1.808662e-02 9.426966e+00 4.598877e-01))
0.0590769     	((3.051004e+01 -1.545697e-17 8.484902e+02) (9.304383e+00 -1.228661e-20 -4.035912e-01)) ((-4.242451e+01 -3.723886e+02 1.525502e+00) (2.017956e-02 9.558930e+00 4.652192e-01))
0.0595385     	((3.082197e+01 -1.536435e-17 8.531808e+02) (9.388931e+00 -1.127051e-20 -4.488579e-01)) ((-4.265904e+01 -3.745397e+02 1.541098e+00) (2.244290e-02 9.669658e+00 4.694465e-01))
0.06          	((7.541860e+00 -7.017459e-18 6.416302e+02) (9.473712e+00 -8.538717e-21 -4.922409e-01)) ((-3.208151e+01 -2.556658e+02 3.770930e-01) (2.461204e-02 9.777976e+00 4.736856e-01))
0.0604651     	((2.963744e+01 -1.553177e-17 8.570892e+02) (9.526788e+00 -4.265139e-21 -5.152775e-01)) ((-4.285446e+01 -3.762886e+02 1.481872e+00) (2.576388e-02 9.836762e+00 4.763394e-01))
0.0609302     	((2.921910e+01 -1.562151e-17 8.552915e+02) (9.582372e+00 9.199845e-22 -5.518002e-01)) ((-4.276457e+01 -3.746620e+02 1.460955e+00) (2.759001e-02 9.908707e+00 4.791186e-01))
0.0613953     	((2.903458e+01 -1.355917e-17 8.555259e+02) (9.638758e+00 -2.061832e-21 -5.975532e-01)) ((-4.277630e+01 -3.746573e+02 1.451729e+00) (2.987766e-02 9.988515e+00 4.819379e-01))
0.0618605     	((2.560711e+01 -1.132599e-17 8.222211e+02) (9.691423e+00 -2.291736e-20 -6.415930e-01)) ((-4.111106e+01 -3.555200e+02 1.280355e+00) (3.207965e-02 1.006252e+01 4.845712e-01))
0.0623256     	((-3.651789e+00 -3.837282e-18 5.589078e+02) (9.741766e+00 -3.804084e-20 -6.833957e-01)) ((-2.794539e+01 -2.031361e+02 -1.825895e-01) (3.416978e-02 1.013108e+01 4.870883e-01))
0.0627907     	((2.310354e+01 -1.098478e-17 8.033520e+02) (9.790889e+00 -4.470879e-20 -7.312967e-01)) ((-4.016760e+01 -3.441588e+02 1.155177e+00) (3.656483e-02 1.020197e+01 4.895445e-01))
0.0632558     	((2.485588e+01 -1.130132e-17 8.213629e+02) (9.818937e+00 -4.407856e-20 -7.772966e-01)) ((-4.106815e+01 -3.542748e+02 1.242794e+00) (3.886483e-02 1.024794e+01 4.909469e-01))
0.0637209     	((2.367312e+01 -2.776483e-18 8.191720e+02) (9.845024e+00 -3.836523e-20 -8.263082e-01)) ((-4.095860e+01 -3.511722e+02 1.183656e+00) (4.131541e-02 1.029322e+01 4.922512e-01))
0.064186      	((2.097493e+01 1.427419e-17 8.190944e+02) (9.852002e+00 -2.805326e-20 -8.706918e-01)) ((-4.095472e+01 -3.488393e+02 1.048746e+00) (4.353459e-02 1.031392e+01 4.926001e-01))
0.0646512     	((-3.717553e+01 2.009008e-16 5.655532e+02) (9.867376e+00 -1.628542e-20 -9.165785e-01)) ((-2.827766e+01 -2.035968e+02 -1.858776e+00) (4.582893e-02 1.034380e+01 4.933688e-01))
0.0651163     	((-1.969061e+01 1.130874e-16 9.085314e+02) (9.858561e+00 1.168606e-20 -9.460265e-01)) ((-4.542657e+01 -4.144515e+02 -9.845306e-01) (4.730132e-02 1.033472e+01 4.929281e-01))
0.0656124     	((7.577410e+00 5.841421e-17 8.344312e+02) (9.851114e+00 2.774003e-20 -9.771647e-01)) ((-4.172156e+01 -3.582411e+02 3.788705e-01) (4.885823e-02 1.032544e+01 4.925557e-01))
0.0660765     	((8.853107e+00 5.747059e-17 8.406322e+02) (9.848015e+00 2.206432e-20 -1.014483e+00)) ((-4.203161e+01 -3.610551e+02 4.426553e-01) (5.072413e-02 1.032638e+01 4.924007e-01))
0.0665406     	((1.040999e+01 5.678828e-17 8.313057e+02) (9.845125e+00 1.765047e-20 -1.057110e+00)) ((-4.156528e+01 -3.539078e+02 5.204995e-01) (5.285551e-02 1.033131e+01 4.922563e-01))
0.0670048     	((-3.748111e+01 1.449628e-16 4.560534e+02) (9.870496e+00 1.873439e-20 -1.105964e+00)) ((-2.280267e+01 -1.237792e+02 -1.874056e+00) (5.529818e-02 1.036972e+01 4.935248e-01))
0.0674689     	((8.752561e+00 5.632804e-17 8.277660e+02) (9.875787e+00 1.950966e-21 -1.153816e+00)) ((-4.138830e+01 -3.511112e+02 4.376280e-01) (5.769079e-02 1.038629e+01 4.937894e-01))
0.067933      	((9.894302e+00 5.477156e-17 8.182613e+02) (9.865602e+00 -1.163121e-20 -1.187529e+00)) ((-4.091306e+01 -3.442571e+02 4.947151e-01) (5.937644e-02 1.037427e+01 4.932801e-01))
0.0683971     	((6.122857e+00 5.773358e-17 7.978146e+02) (9.851078e+00 -9.184890e-21 -1.223124e+00)) ((-3.989073e+01 -3.323185e+02 3.061429e-01) (6.115621e-02 1.035881e+01 4.925539e-01))
0.0688612     	((-1.736746e+01 3.215907e-17 6.972074e+02) (9.834687e+00 -3.012925e-21 -1.259455e+00)) ((-3.486037e+01 -2.641454e+02 -8.683732e-01) (6.297273e-02 1.034198e+01 4.917344e-01))
0.0693253     	((-1.726333e+02 -3.069170e-17 3.813235e+02) (9.801187e+00 -9.095106e-21 -1.293668e+00)) ((-1.906617e+01 -6.072312e+01 -8.631667e+00) (6.468342e-02 1.030733e+01 4.900593e-01))
0.0698336     	((-5.076927e+01 4.902856e-18 5.787551e+02) (9.725162e+00 -1.234970e-20 -1.276762e+00)) ((-2.893775e+01 -1.908506e+02 -2.538463e+00) (6.383812e-02 1.018131e+01 4.862581e-01))
0.0703178     	((-2.573999e+02 -4.031361e-17 2.924574e+02) (9.639382e+00 -1.844492e-20 -1.302261e+00)) ((-1.462287e+01 2.697764e+01 -1.287000e+01) (6.511306e-02 1.008742e+01 4.819691e-01))
0.0708274     	((-5.697518e+02 1.331476e-15 -2.544777e+03) (9.580106e+00 -1.337993e-20 -1.357162e+00)) ((1.272389e+02 1.893936e+03 -2.848759e+01) (6.785811e-02 1.004522e+01 4.790053e-01))
0.0713369     	((-6.691844e+02 1.479429e-15 -2.557836e+03) (9.497080e+00 -2.931093e-21 -1.417059e+00)) ((1.278918e+02 1.870473e+03 -3.345922e+01) (7.085295e-02 9.988898e+00 4.748540e-01))
0.0718784     	((-1.018154e+03 6.854820e-16 -2.142381e+03) (9.328096e+00 -3.594475e-21 -1.466169e+00)) ((1.071190e+02 1.669229e+03 -5.090769e+01) (7.330847e-02 9.845944e+00 4.664048e-01))